    2    2    1    1
  0.5643294E+01  0.2517827E-09  0.2517827E-09  0.2517827E-09  0.5000000E-15
  1.000000000000000E-004
  CAR 
 Diamont Test Results                    
      8      3      8
 
  0.0000000E+00  0.0000000E+00  0.0000000E+00  0.1250000E+00
    1      -11.954661   1.000000
    2        9.365000   1.000000
    3        9.365028   1.000000
    4        9.365029   1.000000
    5       15.403544   0.000000
    6       15.403562   0.000000
    7       15.403566   0.000000
    8       23.270053   0.000000
 
  0.5000000E+00  0.2114441E-16  0.0000000E+00  0.5000000E+00
    1       -6.357928   1.000000
    2       -3.710678   1.000000
    3        6.555831   1.000000
    4        6.555853   1.000000
    5       18.354473   0.000000
    6       18.354496   0.000000
    7       18.715972   0.000000
    8       26.620450   0.000000
 
  0.5000000E+00  0.5000000E+00  0.0000000E+00  0.3750000E+00
    1       -3.346022   1.000000
    2       -3.346021   1.000000
    3        3.173280   1.000000
    4        3.173292   1.000000
    5       14.983936   0.000000
    6       14.983947   0.000000
    7       27.182263   0.000000
    8       27.182289   0.000000
