PROCAR lm decomposed
# of k-points:    3         # of bands:    8         # of ions:    2

 k-point     1 :    0.00000000 0.00000000 0.00000000     weight = 0.12500000

band     1 # energy  -11.95466123 # occ.  2.00000000
 
ion      s     py     pz     px    dxy    dyz    dz2    dxz  x2-y2    tot
    1  0.285  0.000  0.000  0.000  0.000  0.000  0.000  0.000  0.000  0.285
    2  0.285  0.000  0.000  0.000  0.000  0.000  0.000  0.000  0.000  0.285
tot    0.570  0.000  0.000  0.000  0.000  0.000  0.000  0.000  0.000  0.570
 
band     2 # energy    9.36499976 # occ.  2.00000000
 
ion      s     py     pz     px    dxy    dyz    dz2    dxz  x2-y2    tot
    1  0.000  0.047  0.249  0.085  0.000  0.000  0.000  0.000  0.000  0.381
    2  0.000  0.047  0.249  0.085  0.000  0.000  0.000  0.000  0.000  0.381
tot    0.000  0.094  0.498  0.170  0.000  0.000  0.000  0.000  0.000  0.762
 
band     3 # energy    9.36502787 # occ.  2.00000000
 
ion      s     py     pz     px    dxy    dyz    dz2    dxz  x2-y2    tot
    1  0.000  0.233  0.107  0.040  0.000  0.000  0.000  0.000  0.000  0.381
    2  0.000  0.233  0.107  0.040  0.000  0.000  0.000  0.000  0.000  0.381
tot    0.000  0.467  0.215  0.081  0.000  0.000  0.000  0.000  0.000  0.762
 
band     4 # energy    9.36502932 # occ.  2.00000000
 
ion      s     py     pz     px    dxy    dyz    dz2    dxz  x2-y2    tot
    1  0.000  0.100  0.025  0.256  0.000  0.000  0.000  0.000  0.000  0.381
    2  0.000  0.100  0.025  0.256  0.000  0.000  0.000  0.000  0.000  0.381
tot    0.000  0.201  0.050  0.511  0.000  0.000  0.000  0.000  0.000  0.762
 
band     5 # energy   15.40354429 # occ.  0.00000000
 
ion      s     py     pz     px    dxy    dyz    dz2    dxz  x2-y2    tot
    1  0.000  0.023  0.200  0.077  0.000  0.000  0.000  0.000  0.000  0.300
    2  0.000  0.023  0.200  0.077  0.000  0.000  0.000  0.000  0.000  0.300
tot    0.000  0.046  0.400  0.154  0.000  0.000  0.000  0.000  0.000  0.600
 
band     6 # energy   15.40356202 # occ.  0.00000000
 
ion      s     py     pz     px    dxy    dyz    dz2    dxz  x2-y2    tot
    1  0.000  0.046  0.044  0.209  0.000  0.000  0.000  0.000  0.000  0.300
    2  0.000  0.046  0.044  0.209  0.000  0.000  0.000  0.000  0.000  0.300
tot    0.000  0.093  0.088  0.419  0.000  0.000  0.000  0.000  0.000  0.600
 
band     7 # energy   15.40356577 # occ.  0.00000000
 
ion      s     py     pz     px    dxy    dyz    dz2    dxz  x2-y2    tot
    1  0.000  0.231  0.056  0.014  0.000  0.000  0.000  0.000  0.000  0.300
    2  0.000  0.231  0.056  0.014  0.000  0.000  0.000  0.000  0.000  0.300
tot    0.000  0.461  0.111  0.028  0.000  0.000  0.000  0.000  0.000  0.600
 
band     8 # energy   23.27005328 # occ.  0.00000000
 
ion      s     py     pz     px    dxy    dyz    dz2    dxz  x2-y2    tot
    1  0.395  0.000  0.000  0.000  0.000  0.000  0.000  0.000  0.000  0.395
    2  0.395  0.000  0.000  0.000  0.000  0.000  0.000  0.000  0.000  0.395
tot    0.791  0.000  0.000  0.000  0.000  0.000  0.000  0.000  0.000  0.791
 

 k-point     2 :    0.50000000 0.00000000 0.00000000     weight = 0.50000000

band     1 # energy   -6.35792774 # occ.  2.00000000
 
ion      s     py     pz     px    dxy    dyz    dz2    dxz  x2-y2    tot
    1  0.298  0.004  0.000  0.029  0.000  0.000  0.000  0.000  0.000  0.330
    2  0.298  0.004  0.000  0.029  0.000  0.000  0.000  0.000  0.000  0.330
tot    0.596  0.007  0.000  0.058  0.000  0.000  0.000  0.000  0.000  0.660
 
band     2 # energy   -3.71067838 # occ.  2.00000000
 
ion      s     py     pz     px    dxy    dyz    dz2    dxz  x2-y2    tot
    1  0.084  0.022  0.000  0.173  0.000  0.000  0.000  0.000  0.000  0.278
    2  0.084  0.022  0.000  0.173  0.000  0.000  0.000  0.000  0.000  0.278
tot    0.168  0.043  0.000  0.346  0.000  0.000  0.000  0.000  0.000  0.556
 
band     3 # energy    6.55583082 # occ.  2.00000000
 
ion      s     py     pz     px    dxy    dyz    dz2    dxz  x2-y2    tot
    1  0.000  0.092  0.264  0.012  0.000  0.000  0.000  0.000  0.000  0.368
    2  0.000  0.092  0.264  0.012  0.000  0.000  0.000  0.000  0.000  0.368
tot    0.000  0.184  0.528  0.023  0.000  0.000  0.000  0.000  0.000  0.736
 
band     4 # energy    6.55585255 # occ.  2.00000000
 
ion      s     py     pz     px    dxy    dyz    dz2    dxz  x2-y2    tot
    1  0.000  0.235  0.104  0.029  0.000  0.000  0.000  0.000  0.000  0.368
    2  0.000  0.235  0.104  0.029  0.000  0.000  0.000  0.000  0.000  0.368
tot    0.000  0.470  0.207  0.059  0.000  0.000  0.000  0.000  0.000  0.736
 
band     5 # energy   18.35447302 # occ.  0.00000000
 
ion      s     py     pz     px    dxy    dyz    dz2    dxz  x2-y2    tot
    1  0.000  0.056  0.203  0.007  0.000  0.000  0.000  0.000  0.000  0.266
    2  0.000  0.056  0.203  0.007  0.000  0.000  0.000  0.000  0.000  0.266
tot    0.000  0.111  0.406  0.014  0.000  0.000  0.000  0.000  0.000  0.531
 
band     6 # energy   18.35449637 # occ.  0.00000000
 
ion      s     py     pz     px    dxy    dyz    dz2    dxz  x2-y2    tot
    1  0.000  0.180  0.063  0.023  0.000  0.000  0.000  0.000  0.000  0.266
    2  0.000  0.180  0.063  0.023  0.000  0.000  0.000  0.000  0.000  0.266
tot    0.000  0.361  0.125  0.045  0.000  0.000  0.000  0.000  0.000  0.531
 
band     7 # energy   18.71597219 # occ.  0.00000000
 
ion      s     py     pz     px    dxy    dyz    dz2    dxz  x2-y2    tot
    1  0.278  0.003  0.000  0.020  0.000  0.000  0.000  0.000  0.000  0.301
    2  0.278  0.003  0.000  0.020  0.000  0.000  0.000  0.000  0.000  0.301
tot    0.557  0.005  0.000  0.041  0.000  0.000  0.000  0.000  0.000  0.603
 
band     8 # energy   26.62044988 # occ.  0.00000000
 
ion      s     py     pz     px    dxy    dyz    dz2    dxz  x2-y2    tot
    1  0.002  0.030  0.000  0.236  0.000  0.000  0.000  0.000  0.000  0.267
    2  0.002  0.030  0.000  0.236  0.000  0.000  0.000  0.000  0.000  0.267
tot    0.003  0.059  0.000  0.472  0.000  0.000  0.000  0.000  0.000  0.534
 

 k-point     3 :    0.50000000 0.50000000 0.00000000     weight = 0.37500000

band     1 # energy   -3.34602172 # occ.  2.00000000
 
ion      s     py     pz     px    dxy    dyz    dz2    dxz  x2-y2    tot
    1  0.213  0.038  0.000  0.075  0.000  0.000  0.000  0.000  0.000  0.326
    2  0.213  0.038  0.000  0.075  0.000  0.000  0.000  0.000  0.000  0.326
tot    0.426  0.075  0.000  0.151  0.000  0.000  0.000  0.000  0.000  0.652
 
band     2 # energy   -3.34602129 # occ.  2.00000000
 
ion      s     py     pz     px    dxy    dyz    dz2    dxz  x2-y2    tot
    1  0.213  0.038  0.000  0.075  0.000  0.000  0.000  0.000  0.000  0.326
    2  0.213  0.038  0.000  0.075  0.000  0.000  0.000  0.000  0.000  0.326
tot    0.426  0.075  0.000  0.151  0.000  0.000  0.000  0.000  0.000  0.652
 
band     3 # energy    3.17327960 # occ.  2.00000000
 
ion      s     py     pz     px    dxy    dyz    dz2    dxz  x2-y2    tot
    1  0.000  0.000  0.337  0.000  0.000  0.000  0.000  0.000  0.000  0.337
    2  0.000  0.000  0.337  0.000  0.000  0.000  0.000  0.000  0.000  0.337
tot    0.000  0.000  0.673  0.000  0.000  0.000  0.000  0.000  0.000  0.673
 
band     4 # energy    3.17329243 # occ.  2.00000000
 
ion      s     py     pz     px    dxy    dyz    dz2    dxz  x2-y2    tot
    1  0.000  0.224  0.000  0.112  0.000  0.000  0.000  0.000  0.000  0.337
    2  0.000  0.224  0.000  0.112  0.000  0.000  0.000  0.000  0.000  0.337
tot    0.000  0.449  0.000  0.224  0.000  0.000  0.000  0.000  0.000  0.673
 
band     5 # energy   14.98393648 # occ.  0.00000000
 
ion      s     py     pz     px    dxy    dyz    dz2    dxz  x2-y2    tot
    1  0.110  0.020  0.000  0.040  0.000  0.000  0.000  0.000  0.000  0.171
    2  0.110  0.020  0.000  0.040  0.000  0.000  0.000  0.000  0.000  0.171
tot    0.220  0.040  0.000  0.081  0.000  0.000  0.000  0.000  0.000  0.341
 
band     6 # energy   14.98394717 # occ.  0.00000000
 
ion      s     py     pz     px    dxy    dyz    dz2    dxz  x2-y2    tot
    1  0.110  0.020  0.000  0.040  0.000  0.000  0.000  0.000  0.000  0.171
    2  0.110  0.020  0.000  0.040  0.000  0.000  0.000  0.000  0.000  0.171
tot    0.220  0.040  0.000  0.081  0.000  0.000  0.000  0.000  0.000  0.341
 
band     7 # energy   27.18226265 # occ.  0.00000000
 
ion      s     py     pz     px    dxy    dyz    dz2    dxz  x2-y2    tot
    1  0.000  0.000  0.426  0.000  0.000  0.000  0.000  0.000  0.000  0.426
    2  0.000  0.000  0.426  0.000  0.000  0.000  0.000  0.000  0.000  0.426
tot    0.000  0.000  0.852  0.000  0.000  0.000  0.000  0.000  0.000  0.852
 
band     8 # energy   27.18228933 # occ.  0.00000000
 
ion      s     py     pz     px    dxy    dyz    dz2    dxz  x2-y2    tot
    1  0.000  0.284  0.000  0.142  0.000  0.000  0.000  0.000  0.000  0.426
    2  0.000  0.284  0.000  0.142  0.000  0.000  0.000  0.000  0.000  0.426
tot    0.000  0.568  0.000  0.284  0.000  0.000  0.000  0.000  0.000  0.852
 
