PROCAR lm decomposed
# of k-points:  120         # of bands:    8         # of ions:    2

 k-point     1 :    0.00000000 0.00000000 0.00000000     weight = 0.00029630

band     1 # energy  -12.15046898 # occ.  2.00000000
 
ion      s     py     pz     px    dxy    dyz    dz2    dxz  x2-y2    tot
    1  0.287  0.000  0.000  0.000  0.000  0.000  0.000  0.000  0.000  0.287
    2  0.287  0.000  0.000  0.000  0.000  0.000  0.000  0.000  0.000  0.287
tot    0.574  0.000  0.000  0.000  0.000  0.000  0.000  0.000  0.000  0.574
 
band     2 # energy    8.95281552 # occ.  2.00000000
 
ion      s     py     pz     px    dxy    dyz    dz2    dxz  x2-y2    tot
    1  0.000  0.198  0.075  0.104  0.000  0.000  0.000  0.000  0.000  0.377
    2  0.000  0.198  0.075  0.104  0.000  0.000  0.000  0.000  0.000  0.377
tot    0.000  0.397  0.150  0.207  0.000  0.000  0.000  0.000  0.000  0.754
 
band     3 # energy    8.95281678 # occ.  2.00000000
 
ion      s     py     pz     px    dxy    dyz    dz2    dxz  x2-y2    tot
    1  0.000  0.079  0.293  0.005  0.000  0.000  0.000  0.000  0.000  0.377
    2  0.000  0.079  0.293  0.005  0.000  0.000  0.000  0.000  0.000  0.377
tot    0.000  0.157  0.586  0.011  0.000  0.000  0.000  0.000  0.000  0.754
 
band     4 # energy    8.95281796 # occ.  2.00000000
 
ion      s     py     pz     px    dxy    dyz    dz2    dxz  x2-y2    tot
    1  0.000  0.100  0.009  0.268  0.000  0.000  0.000  0.000  0.000  0.377
    2  0.000  0.100  0.009  0.268  0.000  0.000  0.000  0.000  0.000  0.377
tot    0.000  0.200  0.018  0.536  0.000  0.000  0.000  0.000  0.000  0.754
 
band     5 # energy   15.03812981 # occ.  0.00000000
 
ion      s     py     pz     px    dxy    dyz    dz2    dxz  x2-y2    tot
    1  0.000  0.030  0.000  0.269  0.000  0.000  0.000  0.000  0.000  0.299
    2  0.000  0.030  0.000  0.269  0.000  0.000  0.000  0.000  0.000  0.299
tot    0.000  0.059  0.000  0.539  0.000  0.000  0.000  0.000  0.000  0.598
 
band     6 # energy   15.03813252 # occ.  0.00000000
 
ion      s     py     pz     px    dxy    dyz    dz2    dxz  x2-y2    tot
    1  0.000  0.001  0.298  0.000  0.000  0.000  0.000  0.000  0.000  0.299
    2  0.000  0.001  0.298  0.000  0.000  0.000  0.000  0.000  0.000  0.299
tot    0.000  0.002  0.596  0.000  0.000  0.000  0.000  0.000  0.000  0.598
 
band     7 # energy   15.03813439 # occ.  0.00000000
 
ion      s     py     pz     px    dxy    dyz    dz2    dxz  x2-y2    tot
    1  0.000  0.268  0.001  0.030  0.000  0.000  0.000  0.000  0.000  0.299
    2  0.000  0.268  0.001  0.030  0.000  0.000  0.000  0.000  0.000  0.299
tot    0.000  0.537  0.002  0.060  0.000  0.000  0.000  0.000  0.000  0.598
 
band     8 # energy   22.98490808 # occ.  0.00000000
 
ion      s     py     pz     px    dxy    dyz    dz2    dxz  x2-y2    tot
    1  0.409  0.000  0.000  0.000  0.000  0.000  0.000  0.000  0.000  0.409
    2  0.409  0.000  0.000  0.000  0.000  0.000  0.000  0.000  0.000  0.409
tot    0.819  0.000  0.000  0.000  0.000  0.000  0.000  0.000  0.000  0.819
 

 k-point     2 :    0.06666667-0.00000000 0.00000000     weight = 0.00237037

band     1 # energy  -12.02911741 # occ.  2.00000000
 
ion      s     py     pz     px    dxy    dyz    dz2    dxz  x2-y2    tot
    1  0.286  0.000  0.000  0.001  0.000  0.000  0.000  0.000  0.000  0.288
    2  0.286  0.000  0.000  0.001  0.000  0.000  0.000  0.000  0.000  0.288
tot    0.572  0.000  0.000  0.003  0.000  0.000  0.000  0.000  0.000  0.575
 
band     2 # energy    8.17935215 # occ.  2.00000000
 
ion      s     py     pz     px    dxy    dyz    dz2    dxz  x2-y2    tot
    1  0.011  0.039  0.000  0.316  0.000  0.000  0.000  0.000  0.000  0.366
    2  0.011  0.039  0.000  0.316  0.000  0.000  0.000  0.000  0.000  0.366
tot    0.022  0.079  0.000  0.632  0.000  0.000  0.000  0.000  0.000  0.733
 
band     3 # energy    8.75280681 # occ.  2.00000000
 
ion      s     py     pz     px    dxy    dyz    dz2    dxz  x2-y2    tot
    1  0.000  0.272  0.069  0.034  0.000  0.000  0.000  0.000  0.000  0.374
    2  0.000  0.272  0.069  0.034  0.000  0.000  0.000  0.000  0.000  0.374
tot    0.000  0.543  0.138  0.068  0.000  0.000  0.000  0.000  0.000  0.749
 
band     4 # energy    8.75280790 # occ.  2.00000000
 
ion      s     py     pz     px    dxy    dyz    dz2    dxz  x2-y2    tot
    1  0.000  0.061  0.306  0.008  0.000  0.000  0.000  0.000  0.000  0.374
    2  0.000  0.061  0.306  0.008  0.000  0.000  0.000  0.000  0.000  0.374
tot    0.000  0.122  0.611  0.015  0.000  0.000  0.000  0.000  0.000  0.749
 
band     5 # energy   15.30653869 # occ.  0.00000000
 
ion      s     py     pz     px    dxy    dyz    dz2    dxz  x2-y2    tot
    1  0.000  0.001  0.302  0.000  0.000  0.000  0.000  0.000  0.000  0.302
    2  0.000  0.001  0.302  0.000  0.000  0.000  0.000  0.000  0.000  0.302
tot    0.000  0.001  0.604  0.000  0.000  0.000  0.000  0.000  0.000  0.605
 
band     6 # energy   15.30654054 # occ.  0.00000000
 
ion      s     py     pz     px    dxy    dyz    dz2    dxz  x2-y2    tot
    1  0.000  0.268  0.001  0.034  0.000  0.000  0.000  0.000  0.000  0.302
    2  0.000  0.268  0.001  0.034  0.000  0.000  0.000  0.000  0.000  0.302
tot    0.000  0.537  0.001  0.067  0.000  0.000  0.000  0.000  0.000  0.605
 
band     7 # energy   15.51441161 # occ.  0.00000000
 
ion      s     py     pz     px    dxy    dyz    dz2    dxz  x2-y2    tot
    1  0.008  0.033  0.000  0.265  0.000  0.000  0.000  0.000  0.000  0.306
    2  0.008  0.033  0.000  0.265  0.000  0.000  0.000  0.000  0.000  0.306
tot    0.016  0.066  0.000  0.529  0.000  0.000  0.000  0.000  0.000  0.612
 
band     8 # energy   23.09554145 # occ.  0.00000000
 
ion      s     py     pz     px    dxy    dyz    dz2    dxz  x2-y2    tot
    1  0.392  0.002  0.000  0.015  0.000  0.000  0.000  0.000  0.000  0.408
    2  0.392  0.002  0.000  0.015  0.000  0.000  0.000  0.000  0.000  0.408
tot    0.783  0.004  0.000  0.029  0.000  0.000  0.000  0.000  0.000  0.816
 

 k-point     3 :    0.13333333-0.00000000 0.00000000     weight = 0.00237037

band     1 # energy  -11.66607499 # occ.  2.00000000
 
ion      s     py     pz     px    dxy    dyz    dz2    dxz  x2-y2    tot
    1  0.283  0.001  0.000  0.006  0.000  0.000  0.000  0.000  0.000  0.289
    2  0.283  0.001  0.000  0.006  0.000  0.000  0.000  0.000  0.000  0.289
tot    0.565  0.001  0.000  0.012  0.000  0.000  0.000  0.000  0.000  0.579
 
band     2 # energy    6.40584620 # occ.  2.00000000
 
ion      s     py     pz     px    dxy    dyz    dz2    dxz  x2-y2    tot
    1  0.034  0.035  0.000  0.281  0.000  0.000  0.000  0.000  0.000  0.350
    2  0.034  0.035  0.000  0.281  0.000  0.000  0.000  0.000  0.000  0.350
tot    0.069  0.070  0.000  0.561  0.000  0.000  0.000  0.000  0.000  0.700
 
band     3 # energy    8.26574064 # occ.  2.00000000
 
ion      s     py     pz     px    dxy    dyz    dz2    dxz  x2-y2    tot
    1  0.000  0.282  0.052  0.035  0.000  0.000  0.000  0.000  0.000  0.370
    2  0.000  0.282  0.052  0.035  0.000  0.000  0.000  0.000  0.000  0.370
tot    0.000  0.564  0.105  0.070  0.000  0.000  0.000  0.000  0.000  0.739
 
band     4 # energy    8.26574174 # occ.  2.00000000
 
ion      s     py     pz     px    dxy    dyz    dz2    dxz  x2-y2    tot
    1  0.000  0.047  0.317  0.006  0.000  0.000  0.000  0.000  0.000  0.370
    2  0.000  0.047  0.317  0.006  0.000  0.000  0.000  0.000  0.000  0.370
tot    0.000  0.093  0.634  0.012  0.000  0.000  0.000  0.000  0.000  0.739
 
band     5 # energy   15.96592443 # occ.  0.00000000
 
ion      s     py     pz     px    dxy    dyz    dz2    dxz  x2-y2    tot
    1  0.000  0.000  0.308  0.000  0.000  0.000  0.000  0.000  0.000  0.308
    2  0.000  0.000  0.308  0.000  0.000  0.000  0.000  0.000  0.000  0.308
tot    0.000  0.000  0.616  0.000  0.000  0.000  0.000  0.000  0.000  0.617
 
band     6 # energy   15.96592624 # occ.  0.00000000
 
ion      s     py     pz     px    dxy    dyz    dz2    dxz  x2-y2    tot
    1  0.000  0.274  0.000  0.034  0.000  0.000  0.000  0.000  0.000  0.308
    2  0.000  0.274  0.000  0.034  0.000  0.000  0.000  0.000  0.000  0.308
tot    0.000  0.548  0.000  0.068  0.000  0.000  0.000  0.000  0.000  0.617
 
band     7 # energy   16.42310680 # occ.  0.00000000
 
ion      s     py     pz     px    dxy    dyz    dz2    dxz  x2-y2    tot
    1  0.041  0.030  0.000  0.241  0.000  0.000  0.000  0.000  0.000  0.312
    2  0.041  0.030  0.000  0.241  0.000  0.000  0.000  0.000  0.000  0.312
tot    0.083  0.060  0.000  0.481  0.000  0.000  0.000  0.000  0.000  0.624
 
band     8 # energy   23.42554573 # occ.  0.00000000
 
ion      s     py     pz     px    dxy    dyz    dz2    dxz  x2-y2    tot
    1  0.339  0.007  0.000  0.058  0.000  0.000  0.000  0.000  0.000  0.403
    2  0.339  0.007  0.000  0.058  0.000  0.000  0.000  0.000  0.000  0.403
tot    0.677  0.014  0.000  0.115  0.000  0.000  0.000  0.000  0.000  0.807
 

 k-point     4 :    0.20000000-0.00000000 0.00000000     weight = 0.00237037

band     1 # energy  -11.06492397 # occ.  2.00000000
 
ion      s     py     pz     px    dxy    dyz    dz2    dxz  x2-y2    tot
    1  0.277  0.002  0.000  0.013  0.000  0.000  0.000  0.000  0.000  0.292
    2  0.277  0.002  0.000  0.013  0.000  0.000  0.000  0.000  0.000  0.292
tot    0.555  0.003  0.000  0.026  0.000  0.000  0.000  0.000  0.000  0.584
 
band     2 # energy    4.26409023 # occ.  2.00000000
 
ion      s     py     pz     px    dxy    dyz    dz2    dxz  x2-y2    tot
    1  0.060  0.031  0.000  0.245  0.000  0.000  0.000  0.000  0.000  0.336
    2  0.060  0.031  0.000  0.245  0.000  0.000  0.000  0.000  0.000  0.336
tot    0.120  0.061  0.000  0.491  0.000  0.000  0.000  0.000  0.000  0.672
 
band     3 # energy    7.68513280 # occ.  2.00000000
 
ion      s     py     pz     px    dxy    dyz    dz2    dxz  x2-y2    tot
    1  0.000  0.293  0.037  0.037  0.000  0.000  0.000  0.000  0.000  0.366
    2  0.000  0.293  0.037  0.037  0.000  0.000  0.000  0.000  0.000  0.366
tot    0.000  0.586  0.074  0.073  0.000  0.000  0.000  0.000  0.000  0.733
 
band     4 # energy    7.68513397 # occ.  2.00000000
 
ion      s     py     pz     px    dxy    dyz    dz2    dxz  x2-y2    tot
    1  0.000  0.033  0.330  0.004  0.000  0.000  0.000  0.000  0.000  0.366
    2  0.000  0.033  0.330  0.004  0.000  0.000  0.000  0.000  0.000  0.366
tot    0.000  0.065  0.659  0.008  0.000  0.000  0.000  0.000  0.000  0.733
 
band     5 # energy   16.73398827 # occ.  0.00000000
 
ion      s     py     pz     px    dxy    dyz    dz2    dxz  x2-y2    tot
    1  0.000  0.000  0.310  0.000  0.000  0.000  0.000  0.000  0.000  0.310
    2  0.000  0.000  0.310  0.000  0.000  0.000  0.000  0.000  0.000  0.310
tot    0.000  0.000  0.620  0.000  0.000  0.000  0.000  0.000  0.000  0.620
 
band     6 # energy   16.73398995 # occ.  0.00000000
 
ion      s     py     pz     px    dxy    dyz    dz2    dxz  x2-y2    tot
    1  0.000  0.276  0.000  0.034  0.000  0.000  0.000  0.000  0.000  0.310
    2  0.000  0.276  0.000  0.034  0.000  0.000  0.000  0.000  0.000  0.310
tot    0.000  0.551  0.000  0.069  0.000  0.000  0.000  0.000  0.000  0.620
 
band     7 # energy   17.22117974 # occ.  0.00000000
 
ion      s     py     pz     px    dxy    dyz    dz2    dxz  x2-y2    tot
    1  0.101  0.024  0.000  0.189  0.000  0.000  0.000  0.000  0.000  0.314
    2  0.101  0.024  0.000  0.189  0.000  0.000  0.000  0.000  0.000  0.314
tot    0.203  0.047  0.000  0.378  0.000  0.000  0.000  0.000  0.000  0.628
 
band     8 # energy   23.94795387 # occ.  0.00000000
 
ion      s     py     pz     px    dxy    dyz    dz2    dxz  x2-y2    tot
    1  0.257  0.015  0.000  0.121  0.000  0.000  0.000  0.000  0.000  0.393
    2  0.257  0.015  0.000  0.121  0.000  0.000  0.000  0.000  0.000  0.393
tot    0.513  0.030  0.000  0.242  0.000  0.000  0.000  0.000  0.000  0.786
 

 k-point     5 :    0.26666667 0.00000000 0.00000000     weight = 0.00237037

band     1 # energy  -10.23359141 # occ.  2.00000000
 
ion      s     py     pz     px    dxy    dyz    dz2    dxz  x2-y2    tot
    1  0.271  0.003  0.000  0.022  0.000  0.000  0.000  0.000  0.000  0.296
    2  0.271  0.003  0.000  0.022  0.000  0.000  0.000  0.000  0.000  0.296
tot    0.542  0.006  0.000  0.044  0.000  0.000  0.000  0.000  0.000  0.592
 
band     2 # energy    2.04151148 # occ.  2.00000000
 
ion      s     py     pz     px    dxy    dyz    dz2    dxz  x2-y2    tot
    1  0.084  0.027  0.000  0.213  0.000  0.000  0.000  0.000  0.000  0.324
    2  0.084  0.027  0.000  0.213  0.000  0.000  0.000  0.000  0.000  0.324
tot    0.168  0.053  0.000  0.427  0.000  0.000  0.000  0.000  0.000  0.648
 
band     3 # energy    7.14112810 # occ.  2.00000000
 
ion      s     py     pz     px    dxy    dyz    dz2    dxz  x2-y2    tot
    1  0.000  0.303  0.024  0.038  0.000  0.000  0.000  0.000  0.000  0.365
    2  0.000  0.303  0.024  0.038  0.000  0.000  0.000  0.000  0.000  0.365
tot    0.000  0.605  0.049  0.076  0.000  0.000  0.000  0.000  0.000  0.729
 
band     4 # energy    7.14112939 # occ.  2.00000000
 
ion      s     py     pz     px    dxy    dyz    dz2    dxz  x2-y2    tot
    1  0.000  0.022  0.340  0.003  0.000  0.000  0.000  0.000  0.000  0.365
    2  0.000  0.022  0.340  0.003  0.000  0.000  0.000  0.000  0.000  0.365
tot    0.000  0.043  0.681  0.005  0.000  0.000  0.000  0.000  0.000  0.729
 
band     5 # energy   17.37587792 # occ.  0.00000000
 
ion      s     py     pz     px    dxy    dyz    dz2    dxz  x2-y2    tot
    1  0.000  0.000  0.304  0.000  0.000  0.000  0.000  0.000  0.000  0.304
    2  0.000  0.000  0.304  0.000  0.000  0.000  0.000  0.000  0.000  0.304
tot    0.000  0.000  0.607  0.000  0.000  0.000  0.000  0.000  0.000  0.608
 
band     6 # energy   17.37587931 # occ.  0.00000000
 
ion      s     py     pz     px    dxy    dyz    dz2    dxz  x2-y2    tot
    1  0.000  0.270  0.000  0.034  0.000  0.000  0.000  0.000  0.000  0.304
    2  0.000  0.270  0.000  0.034  0.000  0.000  0.000  0.000  0.000  0.304
tot    0.000  0.540  0.000  0.067  0.000  0.000  0.000  0.000  0.000  0.608
 
band     7 # energy   17.77829527 # occ.  0.00000000
 
ion      s     py     pz     px    dxy    dyz    dz2    dxz  x2-y2    tot
    1  0.170  0.016  0.000  0.128  0.000  0.000  0.000  0.000  0.000  0.314
    2  0.170  0.016  0.000  0.128  0.000  0.000  0.000  0.000  0.000  0.314
tot    0.340  0.032  0.000  0.256  0.000  0.000  0.000  0.000  0.000  0.629
 
band     8 # energy   24.58032150 # occ.  0.00000000
 
ion      s     py     pz     px    dxy    dyz    dz2    dxz  x2-y2    tot
    1  0.164  0.023  0.000  0.186  0.000  0.000  0.000  0.000  0.000  0.373
    2  0.164  0.023  0.000  0.186  0.000  0.000  0.000  0.000  0.000  0.373
tot    0.329  0.046  0.000  0.372  0.000  0.000  0.000  0.000  0.000  0.747
 

 k-point     6 :    0.33333333-0.00000000 0.00000000     weight = 0.00237037

band     1 # energy   -9.18906572 # occ.  2.00000000
 
ion      s     py     pz     px    dxy    dyz    dz2    dxz  x2-y2    tot
    1  0.265  0.004  0.000  0.032  0.000  0.000  0.000  0.000  0.000  0.302
    2  0.265  0.004  0.000  0.032  0.000  0.000  0.000  0.000  0.000  0.302
tot    0.531  0.008  0.000  0.064  0.000  0.000  0.000  0.000  0.000  0.603
 
band     2 # energy   -0.11735824 # occ.  2.00000000
 
ion      s     py     pz     px    dxy    dyz    dz2    dxz  x2-y2    tot
    1  0.103  0.023  0.000  0.186  0.000  0.000  0.000  0.000  0.000  0.313
    2  0.103  0.023  0.000  0.186  0.000  0.000  0.000  0.000  0.000  0.313
tot    0.207  0.047  0.000  0.373  0.000  0.000  0.000  0.000  0.000  0.626
 
band     3 # energy    6.70037515 # occ.  2.00000000
 
ion      s     py     pz     px    dxy    dyz    dz2    dxz  x2-y2    tot
    1  0.000  0.308  0.017  0.039  0.000  0.000  0.000  0.000  0.000  0.364
    2  0.000  0.308  0.017  0.039  0.000  0.000  0.000  0.000  0.000  0.364
tot    0.000  0.617  0.035  0.077  0.000  0.000  0.000  0.000  0.000  0.729
 
band     4 # energy    6.70037657 # occ.  2.00000000
 
ion      s     py     pz     px    dxy    dyz    dz2    dxz  x2-y2    tot
    1  0.000  0.015  0.347  0.002  0.000  0.000  0.000  0.000  0.000  0.364
    2  0.000  0.015  0.347  0.002  0.000  0.000  0.000  0.000  0.000  0.364
tot    0.000  0.031  0.694  0.004  0.000  0.000  0.000  0.000  0.000  0.729
 
band     5 # energy   17.77700079 # occ.  0.00000000
 
ion      s     py     pz     px    dxy    dyz    dz2    dxz  x2-y2    tot
    1  0.000  0.001  0.289  0.000  0.000  0.000  0.000  0.000  0.000  0.291
    2  0.000  0.001  0.289  0.000  0.000  0.000  0.000  0.000  0.000  0.291
tot    0.000  0.003  0.578  0.000  0.000  0.000  0.000  0.000  0.000  0.582
 
band     6 # energy   17.77700190 # occ.  0.00000000
 
ion      s     py     pz     px    dxy    dyz    dz2    dxz  x2-y2    tot
    1  0.000  0.257  0.002  0.032  0.000  0.000  0.000  0.000  0.000  0.291
    2  0.000  0.257  0.002  0.032  0.000  0.000  0.000  0.000  0.000  0.291
tot    0.000  0.514  0.003  0.064  0.000  0.000  0.000  0.000  0.000  0.582
 
band     7 # energy   18.12856661 # occ.  0.00000000
 
ion      s     py     pz     px    dxy    dyz    dz2    dxz  x2-y2    tot
    1  0.229  0.010  0.000  0.076  0.000  0.000  0.000  0.000  0.000  0.315
    2  0.229  0.010  0.000  0.076  0.000  0.000  0.000  0.000  0.000  0.315
tot    0.459  0.019  0.000  0.153  0.000  0.000  0.000  0.000  0.000  0.631
 
band     8 # energy   25.19034282 # occ.  0.00000000
 
ion      s     py     pz     px    dxy    dyz    dz2    dxz  x2-y2    tot
    1  0.084  0.029  0.000  0.232  0.000  0.000  0.000  0.000  0.000  0.345
    2  0.084  0.029  0.000  0.232  0.000  0.000  0.000  0.000  0.000  0.345
tot    0.168  0.058  0.000  0.465  0.000  0.000  0.000  0.000  0.000  0.691
 

 k-point     7 :    0.40000000-0.00000000 0.00000000     weight = 0.00237037

band     1 # energy   -7.97930785 # occ.  2.00000000
 
ion      s     py     pz     px    dxy    dyz    dz2    dxz  x2-y2    tot
    1  0.265  0.005  0.000  0.040  0.000  0.000  0.000  0.000  0.000  0.310
    2  0.265  0.005  0.000  0.040  0.000  0.000  0.000  0.000  0.000  0.310
tot    0.531  0.010  0.000  0.080  0.000  0.000  0.000  0.000  0.000  0.620
 
band     2 # energy   -2.09831272 # occ.  2.00000000
 
ion      s     py     pz     px    dxy    dyz    dz2    dxz  x2-y2    tot
    1  0.113  0.021  0.000  0.168  0.000  0.000  0.000  0.000  0.000  0.301
    2  0.113  0.021  0.000  0.168  0.000  0.000  0.000  0.000  0.000  0.301
tot    0.225  0.042  0.000  0.335  0.000  0.000  0.000  0.000  0.000  0.603
 
band     3 # energy    6.39491942 # occ.  2.00000000
 
ion      s     py     pz     px    dxy    dyz    dz2    dxz  x2-y2    tot
    1  0.000  0.312  0.014  0.039  0.000  0.000  0.000  0.000  0.000  0.365
    2  0.000  0.312  0.014  0.039  0.000  0.000  0.000  0.000  0.000  0.365
tot    0.000  0.624  0.027  0.078  0.000  0.000  0.000  0.000  0.000  0.729
 
band     4 # energy    6.39492095 # occ.  2.00000000
 
ion      s     py     pz     px    dxy    dyz    dz2    dxz  x2-y2    tot
    1  0.000  0.012  0.351  0.002  0.000  0.000  0.000  0.000  0.000  0.365
    2  0.000  0.012  0.351  0.002  0.000  0.000  0.000  0.000  0.000  0.365
tot    0.000  0.024  0.702  0.003  0.000  0.000  0.000  0.000  0.000  0.729
 
band     5 # energy   17.96199025 # occ.  0.00000000
 
ion      s     py     pz     px    dxy    dyz    dz2    dxz  x2-y2    tot
    1  0.000  0.007  0.269  0.001  0.000  0.000  0.000  0.000  0.000  0.277
    2  0.000  0.007  0.269  0.001  0.000  0.000  0.000  0.000  0.000  0.277
tot    0.000  0.013  0.539  0.002  0.000  0.000  0.000  0.000  0.000  0.554
 
band     6 # energy   17.96199113 # occ.  0.00000000
 
ion      s     py     pz     px    dxy    dyz    dz2    dxz  x2-y2    tot
    1  0.000  0.240  0.008  0.030  0.000  0.000  0.000  0.000  0.000  0.277
    2  0.000  0.240  0.008  0.030  0.000  0.000  0.000  0.000  0.000  0.277
tot    0.000  0.479  0.015  0.060  0.000  0.000  0.000  0.000  0.000  0.554
 
band     7 # energy   18.33021341 # occ.  0.00000000
 
ion      s     py     pz     px    dxy    dyz    dz2    dxz  x2-y2    tot
    1  0.270  0.005  0.000  0.041  0.000  0.000  0.000  0.000  0.000  0.316
    2  0.270  0.005  0.000  0.041  0.000  0.000  0.000  0.000  0.000  0.316
tot    0.540  0.010  0.000  0.082  0.000  0.000  0.000  0.000  0.000  0.633
 
band     8 # energy   25.63888102 # occ.  0.00000000
 
ion      s     py     pz     px    dxy    dyz    dz2    dxz  x2-y2    tot
    1  0.030  0.031  0.000  0.252  0.000  0.000  0.000  0.000  0.000  0.314
    2  0.030  0.031  0.000  0.252  0.000  0.000  0.000  0.000  0.000  0.314
tot    0.061  0.063  0.000  0.504  0.000  0.000  0.000  0.000  0.000  0.628
 

 k-point     8 :    0.46666667-0.00000000 0.00000000     weight = 0.00237037

band     1 # energy   -6.82825408 # occ.  2.00000000
 
ion      s     py     pz     px    dxy    dyz    dz2    dxz  x2-y2    tot
    1  0.287  0.004  0.000  0.035  0.000  0.000  0.000  0.000  0.000  0.325
    2  0.287  0.004  0.000  0.035  0.000  0.000  0.000  0.000  0.000  0.325
tot    0.573  0.009  0.000  0.069  0.000  0.000  0.000  0.000  0.000  0.651
 
band     2 # energy   -3.64270573 # occ.  2.00000000
 
ion      s     py     pz     px    dxy    dyz    dz2    dxz  x2-y2    tot
    1  0.096  0.021  0.000  0.167  0.000  0.000  0.000  0.000  0.000  0.285
    2  0.096  0.021  0.000  0.167  0.000  0.000  0.000  0.000  0.000  0.285
tot    0.192  0.042  0.000  0.335  0.000  0.000  0.000  0.000  0.000  0.569
 
band     3 # energy    6.23938889 # occ.  2.00000000
 
ion      s     py     pz     px    dxy    dyz    dz2    dxz  x2-y2    tot
    1  0.000  0.314  0.012  0.039  0.000  0.000  0.000  0.000  0.000  0.365
    2  0.000  0.314  0.012  0.039  0.000  0.000  0.000  0.000  0.000  0.365
tot    0.000  0.627  0.024  0.078  0.000  0.000  0.000  0.000  0.000  0.730
 
band     4 # energy    6.23939047 # occ.  2.00000000
 
ion      s     py     pz     px    dxy    dyz    dz2    dxz  x2-y2    tot
    1  0.000  0.011  0.353  0.001  0.000  0.000  0.000  0.000  0.000  0.365
    2  0.000  0.011  0.353  0.001  0.000  0.000  0.000  0.000  0.000  0.365
tot    0.000  0.021  0.706  0.003  0.000  0.000  0.000  0.000  0.000  0.730
 
band     5 # energy   18.02075012 # occ.  0.00000000
 
ion      s     py     pz     px    dxy    dyz    dz2    dxz  x2-y2    tot
    1  0.000  0.012  0.255  0.002  0.000  0.000  0.000  0.000  0.000  0.269
    2  0.000  0.012  0.255  0.002  0.000  0.000  0.000  0.000  0.000  0.269
tot    0.000  0.025  0.509  0.003  0.000  0.000  0.000  0.000  0.000  0.537
 
band     6 # energy   18.02075092 # occ.  0.00000000
 
ion      s     py     pz     px    dxy    dyz    dz2    dxz  x2-y2    tot
    1  0.000  0.226  0.014  0.028  0.000  0.000  0.000  0.000  0.000  0.269
    2  0.000  0.226  0.014  0.028  0.000  0.000  0.000  0.000  0.000  0.269
tot    0.000  0.453  0.028  0.057  0.000  0.000  0.000  0.000  0.000  0.537
 
band     7 # energy   18.42237248 # occ.  0.00000000
 
ion      s     py     pz     px    dxy    dyz    dz2    dxz  x2-y2    tot
    1  0.290  0.003  0.000  0.023  0.000  0.000  0.000  0.000  0.000  0.317
    2  0.290  0.003  0.000  0.023  0.000  0.000  0.000  0.000  0.000  0.317
tot    0.581  0.006  0.000  0.047  0.000  0.000  0.000  0.000  0.000  0.634
 
band     8 # energy   25.86524078 # occ.  0.00000000
 
ion      s     py     pz     px    dxy    dyz    dz2    dxz  x2-y2    tot
    1  0.006  0.032  0.000  0.254  0.000  0.000  0.000  0.000  0.000  0.292
    2  0.006  0.032  0.000  0.254  0.000  0.000  0.000  0.000  0.000  0.292
tot    0.013  0.064  0.000  0.508  0.000  0.000  0.000  0.000  0.000  0.584
 

 k-point     9 :    0.06666667 0.06666667 0.00000000     weight = 0.00177778

band     1 # energy  -11.98867135 # occ.  2.00000000
 
ion      s     py     pz     px    dxy    dyz    dz2    dxz  x2-y2    tot
    1  0.286  0.001  0.000  0.001  0.000  0.000  0.000  0.000  0.000  0.288
    2  0.286  0.001  0.000  0.001  0.000  0.000  0.000  0.000  0.000  0.288
tot    0.571  0.001  0.000  0.003  0.000  0.000  0.000  0.000  0.000  0.576
 
band     2 # energy    8.37802882 # occ.  2.00000000
 
ion      s     py     pz     px    dxy    dyz    dz2    dxz  x2-y2    tot
    1  0.000  0.000  0.367  0.000  0.000  0.000  0.000  0.000  0.000  0.367
    2  0.000  0.000  0.367  0.000  0.000  0.000  0.000  0.000  0.000  0.367
tot    0.000  0.000  0.735  0.000  0.000  0.000  0.000  0.000  0.000  0.735
 
band     3 # energy    8.37802962 # occ.  2.00000000
 
ion      s     py     pz     px    dxy    dyz    dz2    dxz  x2-y2    tot
    1  0.000  0.245  0.000  0.122  0.000  0.000  0.000  0.000  0.000  0.367
    2  0.000  0.245  0.000  0.122  0.000  0.000  0.000  0.000  0.000  0.367
tot    0.000  0.490  0.000  0.245  0.000  0.000  0.000  0.000  0.000  0.735
 
band     4 # energy    8.55935825 # occ.  2.00000000
 
ion      s     py     pz     px    dxy    dyz    dz2    dxz  x2-y2    tot
    1  0.016  0.120  0.000  0.240  0.000  0.000  0.000  0.000  0.000  0.377
    2  0.016  0.120  0.000  0.240  0.000  0.000  0.000  0.000  0.000  0.377
tot    0.032  0.240  0.000  0.481  0.000  0.000  0.000  0.000  0.000  0.753
 
band     5 # energy   14.93649321 # occ.  0.00000000
 
ion      s     py     pz     px    dxy    dyz    dz2    dxz  x2-y2    tot
    1  0.008  0.095  0.000  0.191  0.000  0.000  0.000  0.000  0.000  0.294
    2  0.008  0.095  0.000  0.191  0.000  0.000  0.000  0.000  0.000  0.294
tot    0.016  0.191  0.000  0.381  0.000  0.000  0.000  0.000  0.000  0.588
 
band     6 # energy   15.76215036 # occ.  0.00000000
 
ion      s     py     pz     px    dxy    dyz    dz2    dxz  x2-y2    tot
    1  0.000  0.207  0.000  0.103  0.000  0.000  0.000  0.000  0.000  0.310
    2  0.000  0.207  0.000  0.103  0.000  0.000  0.000  0.000  0.000  0.310
tot    0.000  0.413  0.000  0.207  0.000  0.000  0.000  0.000  0.000  0.620
 
band     7 # energy   15.76215116 # occ.  0.00000000
 
ion      s     py     pz     px    dxy    dyz    dz2    dxz  x2-y2    tot
    1  0.000  0.000  0.310  0.000  0.000  0.000  0.000  0.000  0.000  0.310
    2  0.000  0.000  0.310  0.000  0.000  0.000  0.000  0.000  0.000  0.310
tot    0.000  0.000  0.620  0.000  0.000  0.000  0.000  0.000  0.000  0.620
 
band     8 # energy   23.09620339 # occ.  0.00000000
 
ion      s     py     pz     px    dxy    dyz    dz2    dxz  x2-y2    tot
    1  0.386  0.007  0.000  0.013  0.000  0.000  0.000  0.000  0.000  0.406
    2  0.386  0.007  0.000  0.013  0.000  0.000  0.000  0.000  0.000  0.406
tot    0.771  0.013  0.000  0.027  0.000  0.000  0.000  0.000  0.000  0.811
 

 k-point    10 :    0.13333333 0.06666667 0.00000000     weight = 0.00711111

band     1 # energy  -11.70624750 # occ.  2.00000000
 
ion      s     py     pz     px    dxy    dyz    dz2    dxz  x2-y2    tot
    1  0.283  0.000  0.000  0.006  0.000  0.000  0.000  0.000  0.000  0.289
    2  0.283  0.000  0.000  0.006  0.000  0.000  0.000  0.000  0.000  0.289
tot    0.566  0.000  0.000  0.012  0.000  0.000  0.000  0.000  0.000  0.578
 
band     2 # energy    6.99701020 # occ.  2.00000000
 
ion      s     py     pz     px    dxy    dyz    dz2    dxz  x2-y2    tot
    1  0.026  0.046  0.000  0.284  0.000  0.000  0.000  0.000  0.000  0.356
    2  0.026  0.046  0.000  0.284  0.000  0.000  0.000  0.000  0.000  0.356
tot    0.051  0.093  0.000  0.568  0.000  0.000  0.000  0.000  0.000  0.712
 
band     3 # energy    7.79718842 # occ.  2.00000000
 
ion      s     py     pz     px    dxy    dyz    dz2    dxz  x2-y2    tot
    1  0.000  0.000  0.361  0.000  0.000  0.000  0.000  0.000  0.000  0.361
    2  0.000  0.000  0.361  0.000  0.000  0.000  0.000  0.000  0.000  0.361
tot    0.000  0.000  0.722  0.000  0.000  0.000  0.000  0.000  0.000  0.722
 
band     4 # energy    8.35667625 # occ.  2.00000000
 
ion      s     py     pz     px    dxy    dyz    dz2    dxz  x2-y2    tot
    1  0.011  0.314  0.000  0.049  0.000  0.000  0.000  0.000  0.000  0.374
    2  0.011  0.314  0.000  0.049  0.000  0.000  0.000  0.000  0.000  0.374
tot    0.022  0.628  0.000  0.099  0.000  0.000  0.000  0.000  0.000  0.748
 
band     5 # energy   15.13344099 # occ.  0.00000000
 
ion      s     py     pz     px    dxy    dyz    dz2    dxz  x2-y2    tot
    1  0.013  0.161  0.000  0.119  0.000  0.000  0.000  0.000  0.000  0.293
    2  0.013  0.161  0.000  0.119  0.000  0.000  0.000  0.000  0.000  0.293
tot    0.026  0.322  0.000  0.238  0.000  0.000  0.000  0.000  0.000  0.586
 
band     6 # energy   16.54012268 # occ.  0.00000000
 
ion      s     py     pz     px    dxy    dyz    dz2    dxz  x2-y2    tot
    1  0.000  0.000  0.318  0.000  0.000  0.000  0.000  0.000  0.000  0.318
    2  0.000  0.000  0.318  0.000  0.000  0.000  0.000  0.000  0.000  0.318
tot    0.000  0.000  0.636  0.000  0.000  0.000  0.000  0.000  0.000  0.636
 
band     7 # energy   16.59919131 # occ.  0.00000000
 
ion      s     py     pz     px    dxy    dyz    dz2    dxz  x2-y2    tot
    1  0.015  0.155  0.000  0.148  0.000  0.000  0.000  0.000  0.000  0.318
    2  0.015  0.155  0.000  0.148  0.000  0.000  0.000  0.000  0.000  0.318
tot    0.029  0.310  0.000  0.296  0.000  0.000  0.000  0.000  0.000  0.635
 
band     8 # energy   23.24285292 # occ.  0.00000000
 
ion      s     py     pz     px    dxy    dyz    dz2    dxz  x2-y2    tot
    1  0.343  0.001  0.000  0.052  0.000  0.000  0.000  0.000  0.000  0.396
    2  0.343  0.001  0.000  0.052  0.000  0.000  0.000  0.000  0.000  0.396
tot    0.686  0.002  0.000  0.103  0.000  0.000  0.000  0.000  0.000  0.791
 

 k-point    11 :    0.20000000 0.06666667 0.00000000     weight = 0.00711111

band     1 # energy  -11.18440578 # occ.  2.00000000
 
ion      s     py     pz     px    dxy    dyz    dz2    dxz  x2-y2    tot
    1  0.278  0.000  0.000  0.013  0.000  0.000  0.000  0.000  0.000  0.291
    2  0.278  0.000  0.000  0.013  0.000  0.000  0.000  0.000  0.000  0.291