<?xml version="1.0" encoding="ISO-8859-1"?>
<modeling>
 <generator>
  <i name="program" type="string">vasp </i>
  <i name="version" type="string">5.4.4.18Apr17-6-g9f103f2a35  </i>
  <i name="subversion" type="string">(build Jan 25 2021 16:16:55) complex            parallel </i>
  <i name="platform" type="string">LinuxIFC </i>
  <i name="date" type="string">2026 04 30 </i>
  <i name="time" type="string">12:29:40 </i>
 </generator>
 <incar>
  <i type="string" name="SYSTEM"> r-GeO2 ENCUT convergence test</i>
  <i type="int" name="ISTART">     0</i>
  <i type="string" name="PREC">accurate</i>
  <i type="string" name="ALGO"> Normal</i>
  <i type="int" name="ICHARG">     2</i>
  <i type="int" name="IBRION">    -1</i>
  <i name="EDIFF">      0.00010000</i>
  <i type="int" name="NSW">     0</i>
  <i name="ENCUT">    500.00000000</i>
  <i type="logical" name="LREAL"> F  </i>
  <i type="int" name="ISMEAR">     0</i>
  <i name="SIGMA">      0.05000000</i>
  <i type="logical" name="LWAVE"> F  </i>
  <i type="logical" name="LCHARG"> F  </i>
  <i type="int" name="LORBIT">    11</i>
  <i type="logical" name="LASPH"> T  </i>
  <v type="int" name="KPOINT_BSE">    -1     0     0     0</v>
  <i type="logical" name="LASPH"> T  </i>
 </incar>
 <structure name="primitive_cell" >
  <crystal>
   <varray name="basis" >
    <v>       2.18050236       0.00000000       1.25891346 </v>
    <v>       0.72683412       2.05579703       1.25891346 </v>
    <v>       0.00000000       0.00000000       2.51782692 </v>
   </varray>
   <i name="volume">     11.28658789 </i>
   <varray name="rec_basis" >
    <v>       0.45860991      -0.16214311       0.00000000 </v>
    <v>       0.00000000       0.48642934       0.00000000 </v>
    <v>      -0.22930496      -0.16214311       0.39716789 </v>
   </varray>
  </crystal>
  <varray name="positions" >
   <v>      -0.12500000      -0.12500000      -0.12500000 </v>
   <v>       0.12500000       0.12500000       0.12500000 </v>
  </varray>
 </structure>
 <varray name="primitive_index" >
  <v type="int" >        1 </v>
  <v type="int" >        2 </v>
 </varray>
 <kpoints>
  <generation param="Gamma">
   <v type="int" name="divisions">      15       15       15 </v>
   <v name="usershift">      0.00000000       0.00000000       0.00000000 </v>
   <v name="genvec1">      0.06666667      -0.00000000       0.00000000 </v>
   <v name="genvec2">      0.00000000       0.06666667       0.00000000 </v>
   <v name="genvec3">      0.00000000       0.00000000       0.06666667 </v>
   <v name="shift">      0.00000000       0.00000000       0.00000000 </v>
  </generation>
  <varray name="kpointlist" >
   <v>       0.00000000       0.00000000       0.00000000 </v>
   <v>       0.06666667      -0.00000000       0.00000000 </v>
   <v>       0.13333333      -0.00000000       0.00000000 </v>
   <v>       0.20000000      -0.00000000       0.00000000 </v>
   <v>       0.26666667       0.00000000       0.00000000 </v>
   <v>       0.33333333      -0.00000000       0.00000000 </v>
   <v>       0.40000000      -0.00000000       0.00000000 </v>
   <v>       0.46666667      -0.00000000       0.00000000 </v>
   <v>       0.06666667       0.06666667       0.00000000 </v>
   <v>       0.13333333       0.06666667       0.00000000 </v>
   <v>       0.20000000       0.06666667       0.00000000 </v>
   <v>       0.26666667       0.06666667       0.00000000 </v>
   <v>       0.33333333       0.06666667       0.00000000 </v>
   <v>       0.40000000       0.06666667       0.00000000 </v>
   <v>       0.46666667       0.06666667       0.00000000 </v>
   <v>      -0.46666667       0.06666667       0.00000000 </v>
   <v>      -0.40000000       0.06666667       0.00000000 </v>
   <v>      -0.33333333       0.06666667       0.00000000 </v>
   <v>      -0.26666667       0.06666667       0.00000000 </v>
   <v>      -0.20000000       0.06666667       0.00000000 </v>
   <v>      -0.13333333       0.06666667       0.00000000 </v>
   <v>      -0.06666667       0.06666667       0.00000000 </v>
   <v>       0.13333333       0.13333333       0.00000000 </v>
   <v>       0.20000000       0.13333333       0.00000000 </v>
   <v>       0.26666667       0.13333333       0.00000000 </v>
   <v>       0.33333333       0.13333333       0.00000000 </v>
   <v>       0.40000000       0.13333333       0.00000000 </v>
   <v>       0.46666667       0.13333333       0.00000000 </v>
   <v>      -0.46666667       0.13333333       0.00000000 </v>
   <v>      -0.40000000       0.13333333       0.00000000 </v>
   <v>      -0.33333333       0.13333333       0.00000000 </v>
   <v>      -0.26666667       0.13333333       0.00000000 </v>
   <v>      -0.20000000       0.13333333       0.00000000 </v>
   <v>      -0.13333333       0.13333333       0.00000000 </v>
   <v>       0.20000000       0.20000000       0.00000000 </v>
   <v>       0.26666667       0.20000000       0.00000000 </v>
   <v>       0.33333333       0.20000000       0.00000000 </v>
   <v>       0.40000000       0.20000000       0.00000000 </v>
   <v>       0.46666667       0.20000000       0.00000000 </v>
   <v>      -0.46666667       0.20000000       0.00000000 </v>
   <v>      -0.40000000       0.20000000       0.00000000 </v>
   <v>      -0.33333333       0.20000000       0.00000000 </v>
   <v>      -0.26666667       0.20000000       0.00000000 </v>
   <v>      -0.20000000       0.20000000       0.00000000 </v>
   <v>       0.26666667       0.26666667       0.00000000 </v>
   <v>       0.33333333       0.26666667       0.00000000 </v>
   <v>       0.40000000       0.26666667       0.00000000 </v>
   <v>       0.46666667       0.26666667       0.00000000 </v>
   <v>      -0.46666667       0.26666667       0.00000000 </v>
   <v>      -0.40000000       0.26666667       0.00000000 </v>
   <v>      -0.33333333       0.26666667       0.00000000 </v>
   <v>      -0.26666667       0.26666667       0.00000000 </v>
   <v>       0.33333333       0.33333333       0.00000000 </v>
   <v>       0.40000000       0.33333333       0.00000000 </v>
   <v>       0.46666667       0.33333333       0.00000000 </v>
   <v>      -0.46666667       0.33333333       0.00000000 </v>
   <v>      -0.40000000       0.33333333       0.00000000 </v>
   <v>      -0.33333333       0.33333333       0.00000000 </v>
   <v>       0.40000000       0.40000000       0.00000000 </v>
   <v>       0.46666667       0.40000000       0.00000000 </v>
   <v>      -0.46666667       0.40000000       0.00000000 </v>
   <v>      -0.40000000       0.40000000       0.00000000 </v>
   <v>       0.46666667       0.46666667       0.00000000 </v>
   <v>      -0.46666667       0.46666667       0.00000000 </v>
   <v>       0.20000000       0.13333333       0.06666667 </v>
   <v>       0.26666667       0.13333333       0.06666667 </v>
   <v>       0.33333333       0.13333333       0.06666667 </v>
   <v>       0.40000000       0.13333333       0.06666667 </v>
   <v>       0.46666667       0.13333333       0.06666667 </v>
   <v>      -0.46666667       0.13333333       0.06666667 </v>
   <v>       0.26666667       0.20000000       0.06666667 </v>
   <v>       0.33333333       0.20000000       0.06666667 </v>
   <v>       0.40000000       0.20000000       0.06666667 </v>
   <v>       0.46666667       0.20000000       0.06666667 </v>
   <v>      -0.46666667       0.20000000       0.06666667 </v>
   <v>      -0.40000000       0.20000000       0.06666667 </v>
   <v>      -0.33333333       0.20000000       0.06666667 </v>
   <v>      -0.26666667       0.20000000       0.06666667 </v>
   <v>      -0.20000000       0.20000000       0.06666667 </v>
   <v>      -0.13333333       0.20000000       0.06666667 </v>
   <v>       0.33333333       0.26666667       0.06666667 </v>
   <v>       0.40000000       0.26666667       0.06666667 </v>
   <v>       0.46666667       0.26666667       0.06666667 </v>
   <v>      -0.46666667       0.26666667       0.06666667 </v>
   <v>      -0.40000000       0.26666667       0.06666667 </v>
   <v>      -0.33333333       0.26666667       0.06666667 </v>
   <v>      -0.26666667       0.26666667       0.06666667 </v>
   <v>      -0.20000000       0.26666667       0.06666667 </v>
   <v>       0.40000000       0.33333333       0.06666667 </v>
   <v>       0.46666667       0.33333333       0.06666667 </v>
   <v>      -0.46666667       0.33333333       0.06666667 </v>
   <v>      -0.40000000       0.33333333       0.06666667 </v>
   <v>      -0.33333333       0.33333333       0.06666667 </v>
   <v>      -0.26666667       0.33333333       0.06666667 </v>
   <v>       0.46666667       0.40000000       0.06666667 </v>
   <v>      -0.46666667       0.40000000       0.06666667 </v>
   <v>      -0.40000000       0.40000000       0.06666667 </v>
   <v>      -0.33333333       0.40000000       0.06666667 </v>
   <v>      -0.46666667       0.46666667       0.06666667 </v>
   <v>      -0.40000000       0.46666667       0.06666667 </v>
   <v>       0.40000000       0.26666667       0.13333333 </v>
   <v>       0.46666667       0.26666667       0.13333333 </v>
   <v>      -0.46666667       0.26666667       0.13333333 </v>
   <v>      -0.40000000       0.26666667       0.13333333 </v>
   <v>       0.46666667       0.33333333       0.13333333 </v>
   <v>      -0.46666667       0.33333333       0.13333333 </v>
   <v>      -0.40000000       0.33333333       0.13333333 </v>
   <v>      -0.33333333       0.33333333       0.13333333 </v>
   <v>      -0.26666667       0.33333333       0.13333333 </v>
   <v>      -0.20000000       0.33333333       0.13333333 </v>
   <v>      -0.46666667       0.40000000       0.13333333 </v>
   <v>      -0.40000000       0.40000000       0.13333333 </v>
   <v>      -0.33333333       0.40000000       0.13333333 </v>
   <v>      -0.26666667       0.40000000       0.13333333 </v>
   <v>      -0.40000000       0.46666667       0.13333333 </v>
   <v>      -0.33333333       0.46666667       0.13333333 </v>
   <v>      -0.40000000       0.40000000       0.20000000 </v>
   <v>      -0.33333333       0.40000000       0.20000000 </v>
   <v>      -0.33333333       0.46666667       0.20000000 </v>
   <v>      -0.26666667       0.46666667       0.20000000 </v>
  </varray>
  <varray name="weights" >
   <v>       0.00029630 </v>
   <v>       0.00237037 </v>
   <v>       0.00237037 </v>
   <v>       0.00237037 </v>
   <v>       0.00237037 </v>
   <v>       0.00237037 </v>
   <v>       0.00237037 </v>
   <v>       0.00237037 </v>
   <v>       0.00177778 </v>
   <v>       0.00711111 </v>
   <v>       0.00711111 </v>
   <v>       0.00711111 </v>
   <v>       0.00711111 </v>
   <v>       0.00711111 </v>
   <v>       0.00711111 </v>
   <v>       0.00711111 </v>
   <v>       0.00711111 </v>
   <v>       0.00711111 </v>
   <v>       0.00711111 </v>
   <v>       0.00711111 </v>
   <v>       0.00711111 </v>
   <v>       0.00355556 </v>
   <v>       0.00177778 </v>
   <v>       0.00711111 </v>
   <v>       0.00711111 </v>
   <v>       0.00711111 </v>
   <v>       0.00711111 </v>
   <v>       0.00711111 </v>
   <v>       0.00711111 </v>
   <v>       0.00711111 </v>
   <v>       0.00711111 </v>
   <v>       0.00711111 </v>
   <v>       0.00711111 </v>
   <v>       0.00355556 </v>
   <v>       0.00177778 </v>
   <v>       0.00711111 </v>
   <v>       0.00711111 </v>
   <v>       0.00711111 </v>
   <v>       0.00711111 </v>
   <v>       0.00711111 </v>
   <v>       0.00711111 </v>
   <v>       0.00711111 </v>
   <v>       0.00711111 </v>
   <v>       0.00355556 </v>
   <v>       0.00177778 </v>
   <v>       0.00711111 </v>
   <v>       0.00711111 </v>
   <v>       0.00711111 </v>
   <v>       0.00711111 </v>
   <v>       0.00711111 </v>
   <v>       0.00711111 </v>
   <v>       0.00355556 </v>
   <v>       0.00177778 </v>
   <v>       0.00711111 </v>
   <v>       0.00711111 </v>
   <v>       0.00711111 </v>
   <v>       0.00711111 </v>
   <v>       0.00355556 </v>
   <v>       0.00177778 </v>
   <v>       0.00711111 </v>
   <v>       0.00711111 </v>
   <v>       0.00355556 </v>
   <v>       0.00177778 </v>
   <v>       0.00355556 </v>
   <v>       0.00711111 </v>
   <v>       0.01422222 </v>
   <v>       0.01422222 </v>
   <v>       0.01422222 </v>
   <v>       0.01422222 </v>
   <v>       0.01422222 </v>
   <v>       0.00711111 </v>
   <v>       0.01422222 </v>
   <v>       0.01422222 </v>
   <v>       0.01422222 </v>
   <v>       0.01422222 </v>
   <v>       0.01422222 </v>
   <v>       0.01422222 </v>
   <v>       0.01422222 </v>
   <v>       0.01422222 </v>
   <v>       0.00711111 </v>
   <v>       0.00711111 </v>
   <v>       0.01422222 </v>
   <v>       0.01422222 </v>
   <v>       0.01422222 </v>
   <v>       0.01422222 </v>
   <v>       0.01422222 </v>
   <v>       0.01422222 </v>
   <v>       0.00711111 </v>
   <v>       0.00711111 </v>
   <v>       0.01422222 </v>
   <v>       0.01422222 </v>
   <v>       0.01422222 </v>
   <v>       0.01422222 </v>
   <v>       0.00711111 </v>
   <v>       0.00711111 </v>
   <v>       0.01422222 </v>
   <v>       0.01422222 </v>
   <v>       0.00711111 </v>
   <v>       0.00711111 </v>
   <v>       0.00711111 </v>
   <v>       0.00711111 </v>
   <v>       0.01422222 </v>
   <v>       0.01422222 </v>
   <v>       0.01422222 </v>
   <v>       0.00711111 </v>
   <v>       0.01422222 </v>
   <v>       0.01422222 </v>
   <v>       0.01422222 </v>
   <v>       0.01422222 </v>
   <v>       0.00711111 </v>
   <v>       0.00711111 </v>
   <v>       0.01422222 </v>
   <v>       0.01422222 </v>
   <v>       0.00711111 </v>
   <v>       0.00711111 </v>
   <v>       0.00711111 </v>
   <v>       0.00711111 </v>
   <v>       0.01422222 </v>
   <v>       0.00711111 </v>
   <v>       0.00711111 </v>
  </varray>
 </kpoints>
 <parameters>
  <separator name="general" >
   <i type="string" name="SYSTEM">r-GeO2 ENCUT convergence test</i>
   <i type="logical" name="LCOMPAT"> F  </i>
  </separator>
  <separator name="electronic" >
   <i type="string" name="PREC">accura</i>
   <i name="ENMAX">    500.00000000</i>
   <i name="ENAUG">    644.87300000</i>
   <i name="EDIFF">      0.00010000</i>
   <i type="int" name="IALGO">    38</i>
   <i type="int" name="IWAVPR">    10</i>
   <i type="int" name="NBANDS">     8</i>
   <i name="NELECT">      8.00000000</i>
   <i type="int" name="TURBO">     0</i>
   <i type="int" name="IRESTART">     0</i>
   <i type="int" name="NREBOOT">     0</i>
   <i type="int" name="NMIN">     0</i>
   <i name="EREF">      0.00000000</i>
   <separator name="electronic smearing" >
    <i type="int" name="ISMEAR">     0</i>
    <i name="SIGMA">      0.05000000</i>
    <i name="KSPACING">      0.50000000</i>
    <i type="logical" name="KGAMMA"> T  </i>
   </separator>
   <separator name="electronic projectors" >
    <i type="logical" name="LREAL"> F  </i>
    <v name="ROPT">      0.00000000</v>
    <i type="int" name="LMAXPAW">  -100</i>
    <i type="int" name="LMAXMIX">     2</i>
    <i type="logical" name="NLSPLINE"> F  </i>
   </separator>
   <separator name="electronic startup" >
    <i type="int" name="ISTART">     0</i>
    <i type="int" name="ICHARG">     2</i>
    <i type="int" name="INIWAV">     1</i>
   </separator>
   <separator name="electronic spin" >
    <i type="int" name="ISPIN">     1</i>
    <i type="logical" name="LNONCOLLINEAR"> F  </i>
    <v name="MAGMOM">      1.00000000      1.00000000</v>
    <i name="NUPDOWN">     -1.00000000</i>
    <i type="logical" name="LSORBIT"> F  </i>
    <v name="SAXIS">      0.00000000      0.00000000      1.00000000</v>
    <i type="logical" name="LSPIRAL"> F  </i>
    <v name="QSPIRAL">      0.00000000      0.00000000      0.00000000</v>
    <i type="logical" name="LZEROZ"> F  </i>
   </separator>
   <separator name="electronic exchange-correlation" >
    <i type="logical" name="LASPH"> T  </i>
    <i type="logical" name="LMETAGGA"> F  </i>
   </separator>
   <separator name="electronic convergence" >
    <i type="int" name="NELM">    60</i>
    <i type="int" name="NELMDL">    -5</i>
    <i type="int" name="NELMIN">     2</i>
    <i name="ENINI">    500.00000000</i>
    <separator name="electronic convergence detail" >
     <i type="logical" name="LDIAG"> T  </i>
     <i type="logical" name="LSUBROT"> F  </i>
     <i name="WEIMIN">      0.00000000</i>
     <i name="EBREAK">      0.00000313</i>
     <i name="DEPER">      0.30000000</i>
     <i type="int" name="NRMM">     4</i>
     <i name="TIME">      0.40000000</i>
    </separator>
   </separator>
   <separator name="electronic mixer" >
    <i name="AMIX">      0.40000000</i>
    <i name="BMIX">      1.00000000</i>
    <i name="AMIN">      0.10000000</i>
    <i name="AMIX_MAG">      1.60000000</i>
    <i name="BMIX_MAG">      1.00000000</i>
    <separator name="electronic mixer details" >
     <i type="int" name="IMIX">     4</i>
     <i type="logical" name="MIXFIRST"> F  </i>
     <i type="int" name="MAXMIX">   -45</i>
     <i name="WC">    100.00000000</i>
     <i type="int" name="INIMIX">     1</i>
     <i type="int" name="MIXPRE">     1</i>
     <i type="int" name="MREMOVE">     5</i>
    </separator>
   </separator>
   <separator name="electronic dipolcorrection" >
    <i type="logical" name="LDIPOL"> F  </i>
    <i type="logical" name="LMONO"> F  </i>
    <i type="int" name="IDIPOL">     0</i>
    <i name="EPSILON">      1.00000000</i>
    <v name="DIPOL">   -100.00000000   -100.00000000   -100.00000000</v>
    <i name="EFIELD">      0.00000000</i>
   </separator>
  </separator>
  <separator name="grids" >
   <i type="int" name="NGX">    18</i>
   <i type="int" name="NGY">    18</i>
   <i type="int" name="NGZ">    18</i>
   <i type="int" name="NGXF">    36</i>
   <i type="int" name="NGYF">    36</i>
   <i type="int" name="NGZF">    36</i>
   <i type="logical" name="ADDGRID"> F  </i>
  </separator>
  <separator name="ionic" >
   <i type="int" name="NSW">     0</i>
   <i type="int" name="IBRION">    -1</i>
   <i type="int" name="MDALGO">     0</i>
   <i type="int" name="ISIF">     2</i>
   <i name="PSTRESS">      0.00000000</i>
   <i name="EDIFFG">      0.00100000</i>
   <i type="int" name="NFREE">     0</i>
   <i name="POTIM">      0.50000000</i>
   <i name="SMASS">     -3.00000000</i>
   <i name="SCALEE">      1.00000000</i>
  </separator>
  <separator name="ionic md" >
   <i name="TEBEG">      0.00010000</i>
   <i name="TEEND">      0.00010000</i>
   <i type="int" name="NBLOCK">     1</i>
   <i type="int" name="KBLOCK">     1</i>
   <i type="int" name="NPACO">   256</i>
   <i name="APACO">     16.00000000</i>
  </separator>
  <separator name="symmetry" >
   <i type="int" name="ISYM">     2</i>
   <i name="SYMPREC">      0.00001000</i>
  </separator>
  <separator name="dos" >
   <i type="int" name="LORBIT">    11</i>
   <v name="RWIGS">     -1.00000000</v>
   <i type="int" name="NEDOS">   301</i>
   <i name="EMIN">     10.00000000</i>
   <i name="EMAX">    -10.00000000</i>
   <i name="EFERMI">      0.00000000</i>
  </separator>
  <separator name="writing" >
   <i type="int" name="NWRITE">     2</i>
   <i type="logical" name="LWAVE"> F  </i>
   <i type="logical" name="LDOWNSAMPLE"> F  </i>
   <i type="logical" name="LCHARG"> F  </i>
   <i type="logical" name="LPARD"> F  </i>
   <i type="logical" name="LVTOT"> F  </i>
   <i type="logical" name="LVHAR"> F  </i>
   <i type="logical" name="LELF"> F  </i>
   <i type="logical" name="LOPTICS"> F  </i>
   <v name="STM">      0.00000000      0.00000000      0.00000000      0.00000000      0.00000000      0.00000000      0.00000000</v>
  </separator>
  <separator name="performance" >
   <i type="int" name="NPAR">     2</i>
   <i type="int" name="NSIM">     4</i>
   <i type="int" name="NBLK">    -1</i>
   <i type="logical" name="LPLANE"> T  </i>
   <i type="logical" name="LSCALAPACK"> T  </i>
   <i type="logical" name="LSCAAWARE"> F  </i>
   <i type="logical" name="LSCALU"> F  </i>
   <i type="logical" name="LASYNC"> F  </i>
   <i type="logical" name="LORBITALREAL"> F  </i>
  </separator>
  <separator name="miscellaneous" >
   <i type="int" name="IDIOT">     3</i>
   <i type="int" name="ISPECIAL">     0</i>
   <i type="logical" name="LMUSIC"> F  </i>
   <v name="POMASS">     12.01100000</v>
   <v name="DARWINR">      0.00000000</v>
   <v name="DARWINV">      1.00000000</v>
   <i type="logical" name="LCORR"> T  </i>
  </separator>
  <i type="logical" name="GGA_COMPAT"> T  </i>
  <i type="logical" name="LBERRY"> F  </i>
  <i type="int" name="ICORELEVEL">     0</i>
  <i type="logical" name="LDAU"> F  </i>
  <i type="int" name="I_CONSTRAINED_M">     0</i>
  <separator name="electronic exchange-correlation" >
   <i type="string" name="GGA">--</i>
   <i type="int" name="VOSKOWN">     0</i>
   <i type="logical" name="LHFCALC"> F  </i>
   <i type="string" name="PRECFOCK"></i>
   <i type="logical" name="LSYMGRAD"> F  </i>
   <i type="logical" name="LHFONE"> F  </i>
   <i type="logical" name="LRHFCALC"> F  </i>
   <i type="logical" name="LTHOMAS"> F  </i>
   <i type="logical" name="LMODELHF"> F  </i>
   <i name="ENCUT4O">     -1.00000000</i>
   <i type="int" name="EXXOEP">     0</i>
   <i type="int" name="FOURORBIT">     0</i>
   <i name="AEXX">      0.00000000</i>
   <i name="HFALPHA">      0.00000000</i>
   <i name="MCALPHA">      0.00000000</i>
   <i name="ALDAX">      1.00000000</i>
   <i name="AGGAX">      1.00000000</i>
   <i name="ALDAC">      1.00000000</i>
   <i name="AGGAC">      1.00000000</i>
   <i type="int" name="NKREDX">     1</i>
   <i type="int" name="NKREDY">     1</i>
   <i type="int" name="NKREDZ">     1</i>
   <i type="logical" name="SHIFTRED"> F  </i>
   <i type="logical" name="ODDONLY"> F  </i>
   <i type="logical" name="EVENONLY"> F  </i>
   <i type="int" name="LMAXFOCK">     0</i>
   <i type="int" name="NMAXFOCKAE">     0</i>
   <i type="logical" name="LFOCKAEDFT"> F  </i>
   <i name="HFSCREEN">      0.00000000</i>
   <i name="HFSCREENC">      0.00000000</i>
   <i type="int" name="NBANDSGWLOW">     0</i>
  </separator>
  <separator name="vdW DFT" >
   <i type="logical" name="LUSE_VDW"> F  </i>
   <i name="Zab_VDW">     -0.84910000</i>
   <i name="PARAM1">      0.12340000</i>
   <i name="PARAM2">      1.00000000</i>
   <i name="PARAM3">      0.00000000</i>
  </separator>
  <separator name="model GW" >
   <i type="int" name="MODEL_GW">     0</i>
   <i name="MODEL_EPS0">      3.38597637</i>
   <i name="MODEL_ALPHA">      1.00000000</i>
  </separator>
  <separator name="linear response parameters" >
   <i type="logical" name="LEPSILON"> F  </i>
   <i type="logical" name="LRPA"> F  </i>
   <i type="logical" name="LNABLA"> F  </i>
   <i type="logical" name="LVEL"> F  </i>
   <i type="int" name="KINTER">     0</i>
   <i name="CSHIFT">      0.10000000</i>
   <i name="OMEGAMAX">     -1.00000000</i>
   <i name="DEG_THRESHOLD">      0.00200000</i>
   <i name="RTIME">     -0.10000000</i>
   <i name="WPLASMAI">      0.00000000</i>
   <v name="DFIELD">      0.00000000      0.00000000      0.00000000</v>
   <v name="WPLASMA">      0.00000000      0.00000000      0.00000000      0.00000000      0.00000000      0.00000000      0.00000000      0.00000000      0.00000000</v>
  </separator>
  <separator name="orbital magnetization" >
   <i type="logical" name="NUCIND"> F  </i>
   <v name="MAGPOS">      0.00000000      0.00000000      0.00000000</v>
   <i type="logical" name="LNICSALL"> T  </i>
   <i type="logical" name="ORBITALMAG"> F  </i>
   <i type="logical" name="LMAGBLOCH"> F  </i>
   <i type="logical" name="LCHIMAG"> F  </i>
   <i type="logical" name="LGAUGE"> T  </i>
   <i type="int" name="MAGATOM">     0</i>
   <v name="MAGDIPOL">      0.00000000      0.00000000      0.00000000</v>
   <v name="AVECCONST">      0.00000000      0.00000000      0.00000000</v>
  </separator>
  <separator name="response functions" >
   <i type="logical" name="LADDER"> F  </i>
   <i type="logical" name="LRPAFORCE"> F  </i>
   <i type="logical" name="LFXC"> F  </i>
   <i type="logical" name="LHARTREE"> T  </i>
   <i type="int" name="IBSE">     0</i>
   <v type="int" name="KPOINT">    -1     0     0     0</v>
   <i type="logical" name="LTCTE"> F  </i>
   <i type="logical" name="LTETE"> F  </i>
   <i type="logical" name="LTRIPLET"> F  </i>
   <i type="logical" name="LFXCEPS"> F  </i>
   <i type="logical" name="LFXHEG"> F  </i>
   <i type="int" name="NATURALO">     2</i>
   <i type="logical" name="L2ORDER"> F  </i>
   <i type="logical" name="LMP2LT"> F  </i>
   <i type="logical" name="LUSEW"> F  </i>
   <i name="ENCUTGW">     -2.00000000</i>
   <i name="ENCUTGWSOFT">     -2.00000000</i>
   <i name="ENCUTLF">     -1.00000000</i>
   <i type="int" name="LMAXMP2">    -1</i>
   <i name="SCISSOR">      0.00000000</i>
   <i type="int" name="NOMEGA">     0</i>
   <i type="int" name="NOMEGAR">     0</i>
   <i type="int" name="NBANDSGW">    -1</i>
   <i type="int" name="NBANDSO">    -1</i>
   <i type="int" name="NBANDSV">    -1</i>
   <i type="int" name="NELM">     1</i>
   <i type="int" name="NELMHF">     1</i>
   <i type="int" name="DIM">     3</i>
   <i type="int" name="ANTIRES">     0</i>
   <i name="OMEGAMAX">    -30.00000000</i>
   <i name="OMEGAMIN">    -30.00000000</i>
   <i name="OMEGATL">   -200.00000000</i>
   <i type="int" name="OMEGAGRID">   140</i>
   <i name="CSHIFT">     -0.10000000</i>
   <i type="logical" name="SELFENERGY"> F  </i>
   <i type="logical" name="LSPECTRAL"> F  </i>
   <i type="logical" name="LSPECTRALGW"> F  </i>
   <i type="logical" name="LSINGLES"> F  </i>
   <i type="logical" name="LFERMIGW"> F  </i>
   <i type="logical" name="ODDONLYGW"> F  </i>
   <i type="logical" name="EVENONLYGW"> F  </i>
   <i type="int" name="NKREDLFX">     1</i>
   <i type="int" name="NKREDLFY">     1</i>
   <i type="int" name="NKREDLFZ">     1</i>
   <i type="int" name="MAXMEM">  2800</i>
   <i type="int" name="TELESCOPE">     0</i>
   <i type="int" name="TAUPAR">     1</i>
   <i type="int" name="OMEGAPAR">    -1</i>
   <i name="LAMBDA">      1.00000000</i>
  </separator>
  <separator name="External order field" >
   <i name="OFIELD_KAPPA">      0.00000000</i>
   <v name="OFIELD_K">      0.00000000      0.00000000      0.00000000</v>
   <i name="OFIELD_Q6_NEAR">      0.00000000</i>
   <i name="OFIELD_Q6_FAR">      0.00000000</i>
   <i name="OFIELD_A">      0.00000000</i>
  </separator>
 </parameters>
 <atominfo>
  <atoms>       2 </atoms>
  <types>       1 </types>
  <array name="atoms" >
   <dimension dim="1">ion</dimension>
   <field type="string">element</field>
   <field type="int">atomtype</field>
   <set>
    <rc><c>C </c><c>   1</c></rc>
    <rc><c>C </c><c>   1</c></rc>
   </set>
  </array>
  <array name="atomtypes" >
   <dimension dim="1">type</dimension>
   <field type="int">atomspertype</field>
   <field type="string">element</field>
   <field>mass</field>
   <field>valence</field>
   <field type="string">pseudopotential</field>
   <set>
    <rc><c>   2</c><c>C </c><c>     12.01100000</c><c>      4.00000000</c><c>  PAW_PBE C 08Apr2002                   </c></rc>
   </set>
  </array>
 </atominfo>
 <structure name="initialpos" >
  <crystal>
   <varray name="basis" >
    <v>       2.18050236       0.00000000       1.25891346 </v>
    <v>       0.72683412       2.05579703       1.25891346 </v>
    <v>       0.00000000       0.00000000       2.51782692 </v>
   </varray>
   <i name="volume">     11.28658789 </i>
   <varray name="rec_basis" >
    <v>       0.45860991      -0.16214311       0.00000000 </v>
    <v>       0.00000000       0.48642934       0.00000000 </v>
    <v>      -0.22930496      -0.16214311       0.39716789 </v>
   </varray>
  </crystal>
  <varray name="positions" >
   <v>       0.87500000       0.87500000       0.87500000 </v>
   <v>       0.12500000       0.12500000       0.12500000 </v>
  </varray>
 </structure>
 <calculation>
  <scstep>
   <time name="dav">    0.18    0.18</time>
   <time name="total">    0.21    0.21</time>
   <energy>
    <i name="alphaZ">      6.89200335 </i>
    <i name="ewald">   -348.55062700 </i>
    <i name="hartreedc">    -17.50286058 </i>
    <i name="XCdc">     27.43730065 </i>
    <i name="pawpsdc">    217.04409276 </i>
    <i name="pawaedc">   -218.18290438 </i>
    <i name="eentropy">     -0.00002154 </i>
    <i name="bandstr">      4.64813061 </i>
    <i name="atom">    294.29684335 </i>
    <i name="e_fr_energy">    -33.91804279 </i>
    <i name="e_wo_entrp">    -33.91802124 </i>
    <i name="e_0_energy">    -33.91803201 </i>
   </energy>
  </scstep>
  <scstep>
   <time name="dav">    0.26    0.26</time>
   <time name="total">    0.26    0.26</time>
   <energy>
    <i name="e_fr_energy">    -47.89637297 </i>
    <i name="e_wo_entrp">    -47.89637297 </i>
    <i name="e_0_energy">    -47.89637297 </i>
   </energy>
  </scstep>
  <scstep>
   <time name="dav">    0.18    0.18</time>
   <time name="total">    0.18    0.18</time>
   <energy>
    <i name="e_fr_energy">    -47.97188895 </i>
    <i name="e_wo_entrp">    -47.97188895 </i>
    <i name="e_0_energy">    -47.97188895 </i>
   </energy>
  </scstep>
  <scstep>
   <time name="dav">    0.22    0.22</time>
   <time name="total">    0.22    0.22</time>
   <energy>
    <i name="e_fr_energy">    -47.97201245 </i>
    <i name="e_wo_entrp">    -47.97201245 </i>
    <i name="e_0_energy">    -47.97201245 </i>
   </energy>
  </scstep>
  <scstep>
   <time name="dav">    0.16    0.16</time>
   <time name="total">    0.17    0.17</time>
   <energy>
    <i name="e_fr_energy">    -47.97201251 </i>
    <i name="e_wo_entrp">    -47.97201251 </i>
    <i name="e_0_energy">    -47.97201251 </i>
   </energy>
  </scstep>
  <scstep>
   <time name="dav">    0.17    0.17</time>
   <time name="total">    0.21    0.21</time>
   <energy>
    <i name="e_fr_energy">    -47.30281564 </i>
    <i name="e_wo_entrp">    -47.30281564 </i>
    <i name="e_0_energy">    -47.30281564 </i>
   </energy>
  </scstep>
  <scstep>
   <time name="dav">    0.19    0.19</time>
   <time name="total">    0.25    0.25</time>
   <energy>
    <i name="e_fr_energy">    -47.07551286 </i>
    <i name="e_wo_entrp">    -47.07551286 </i>
    <i name="e_0_energy">    -47.07551286 </i>
   </energy>
  </scstep>
  <scstep>
   <time name="dav">    0.18    0.18</time>
   <time name="total">    0.22    0.22</time>
   <energy>
    <i name="e_fr_energy">    -47.07848599 </i>
    <i name="e_wo_entrp">    -47.07848599 </i>
    <i name="e_0_energy">    -47.07848599 </i>
   </energy>
  </scstep>
  <scstep>
   <time name="dav">    0.22    0.22</time>
   <time name="total">    0.26    0.26</time>
   <energy>
    <i name="alphaZ">      6.89200335 </i>
    <i name="ewald">   -348.55062700 </i>
    <i name="hartreedc">    -28.41419443 </i>
    <i name="XCdc">     28.44169635 </i>
    <i name="pawpsdc">    858.07800834 </i>
    <i name="pawaedc">   -859.42474641 </i>
    <i name="eentropy">     -0.00000000 </i>
    <i name="bandstr">      1.60248760 </i>
    <i name="atom">    294.29684335 </i>
    <i name="e_fr_energy">    -47.07852885 </i>
    <i name="e_wo_entrp">    -47.07852885 </i>
    <i name="e_0_energy">    -47.07852885 </i>
   </energy>
  </scstep>
  <structure>
   <crystal>
    <varray name="basis" >
     <v>       2.18050236       0.00000000       1.25891346 </v>
     <v>       0.72683412       2.05579703       1.25891346 </v>
     <v>       0.00000000       0.00000000       2.51782692 </v>
    </varray>
    <i name="volume">     11.28658789 </i>
    <varray name="rec_basis" >
     <v>       0.45860991      -0.16214311       0.00000000 </v>
     <v>       0.00000000       0.48642934       0.00000000 </v>
     <v>      -0.22930496      -0.16214311       0.39716789 </v>
    </varray>
   </crystal>
   <varray name="positions" >
    <v>       0.87500000       0.87500000       0.87500000 </v>
    <v>       0.12500000       0.12500000       0.12500000 </v>
   </varray>
  </structure>
  <varray name="forces" >
   <v>      -0.00000000      -0.00000000      -0.00000000 </v>
   <v>       0.00000000       0.00000000       0.00000000 </v>
  </varray>
  <varray name="stress" >
   <v>   -2518.92789072       0.00000000      -0.00000000 </v>
   <v>       0.00000000   -2518.92713056       0.00000000 </v>
   <v>      -0.00000000      -0.00000000   -2518.92723237 </v>
  </varray>
  <energy>
   <i name="e_fr_energy">    -47.07852885 </i>
   <i name="e_wo_entrp">    -47.07852885 </i>
   <i name="e_0_energy">     -0.00000000 </i>
  </energy>
  <time name="totalsc">    2.09    2.09</time>
  <eigenvalues>
   <array>
    <dimension dim="1">band</dimension>
    <dimension dim="2">kpoint</dimension>
    <dimension dim="3">spin</dimension>
    <field>eigene</field>
    <field>occ</field>
    <set>
     <set comment="spin 1">
      <set comment="kpoint 1">
       <r>  -12.1505    1.0000 </r>
       <r>    8.9528    1.0000 </r>
       <r>    8.9528    1.0000 </r>
       <r>    8.9528    1.0000 </r>
       <r>   15.0381    0.0000 </r>
       <r>   15.0381    0.0000 </r>
       <r>   15.0381    0.0000 </r>
       <r>   22.9849    0.0000 </r>
      </set>
      <set comment="kpoint 2">
       <r>  -12.0291    1.0000 </r>
       <r>    8.1794    1.0000 </r>
       <r>    8.7528    1.0000 </r>
       <r>    8.7528    1.0000 </r>
       <r>   15.3065    0.0000 </r>
       <r>   15.3065    0.0000 </r>
       <r>   15.5144    0.0000 </r>
       <r>   23.0955    0.0000 </r>
      </set>
      <set comment="kpoint 3">
       <r>  -11.6661    1.0000 </r>
       <r>    6.4058    1.0000 </r>
       <r>    8.2657    1.0000 </r>
       <r>    8.2657    1.0000 </r>
       <r>   15.9659    0.0000 </r>
       <r>   15.9659    0.0000 </r>
       <r>   16.4231    0.0000 </r>
       <r>   23.4255    0.0000 </r>
      </set>
      <set comment="kpoint 4">
       <r>  -11.0649    1.0000 </r>
       <r>    4.2641    1.0000 </r>
       <r>    7.6851    1.0000 </r>
       <r>    7.6851    1.0000 </r>
       <r>   16.7340    0.0000 </r>
       <r>   16.7340    0.0000 </r>
       <r>   17.2212    0.0000 </r>
       <r>   23.9480    0.0000 </r>
      </set>
      <set comment="kpoint 5">
       <r>  -10.2336    1.0000 </r>
       <r>    2.0415    1.0000 </r>
       <r>    7.1411    1.0000 </r>
       <r>    7.1411    1.0000 </r>
       <r>   17.3759    0.0000 </r>
       <r>   17.3759    0.0000 </r>
       <r>   17.7783    0.0000 </r>
       <r>   24.5803    0.0000 </r>
      </set>
      <set comment="kpoint 6">
       <r>   -9.1891    1.0000 </r>
       <r>   -0.1174    1.0000 </r>
       <r>    6.7004    1.0000 </r>
       <r>    6.7004    1.0000 </r>
       <r>   17.7770    0.0000 </r>
       <r>   17.7770    0.0000 </r>
       <r>   18.1286    0.0000 </r>
       <r>   25.1903    0.0000 </r>
      </set>
      <set comment="kpoint 7">
       <r>   -7.9793    1.0000 </r>
       <r>   -2.0983    1.0000 </r>
       <r>    6.3949    1.0000 </r>
       <r>    6.3949    1.0000 </r>
       <r>   17.9620    0.0000 </r>
       <r>   17.9620    0.0000 </r>
       <r>   18.3302    0.0000 </r>
       <r>   25.6389    0.0000 </r>
      </set>
      <set comment="kpoint 8">
       <r>   -6.8283    1.0000 </r>
       <r>   -3.6427    1.0000 </r>
       <r>    6.2394    1.0000 </r>
       <r>    6.2394    1.0000 </r>
       <r>   18.0208    0.0000 </r>
       <r>   18.0208    0.0000 </r>
       <r>   18.4224    0.0000 </r>
       <r>   25.8652    0.0000 </r>
      </set>
      <set comment="kpoint 9">
       <r>  -11.9887    1.0000 </r>
       <r>    8.3780    1.0000 </r>
       <r>    8.3780    1.0000 </r>
       <r>    8.5594    1.0000 </r>
       <r>   14.9365    0.0000 </r>
       <r>   15.7622    0.0000 </r>
       <r>   15.7622    0.0000 </r>
       <r>   23.0962    0.0000 </r>
      </set>
      <set comment="kpoint 10">
       <r>  -11.7062    1.0000 </r>
       <r>    6.9970    1.0000 </r>
       <r>    7.7972    1.0000 </r>
       <r>    8.3567    1.0000 </r>
       <r>   15.1334    0.0000 </r>
       <r>   16.5401    0.0000 </r>
       <r>   16.5992    0.0000 </r>
       <r>   23.2429    0.0000 </r>
      </set>
      <set comment="kpoint 11">
       <r>  -11.1844    1.0000 </r>
       <r>    4.9985    1.0000 </r>
       <r>    7.1896    1.0000 </r>
       <r>    7.9078    1.0000 </r>
       <r>   15.7560    0.0000 </r>
       <r>   17.3778    0.0000 </r>
       <r>   17.4424    0.0000 </r>
       <r>   23.5239    0.0000 </r>
      </set>
      <set comment="kpoint 12">
       <r>  -10.4295    1.0000 </r>
       <r>    2.8219    1.0000 </r>
       <r>    6.6627    1.0000 </r>
       <r>    7.3353    1.0000 </r>
       <r>   16.4898    0.0000 </r>
       <r>   18.0549    0.0000 </r>
       <r>   18.0649    0.0000 </r>
       <r>   23.9352    0.0000 </r>
      </set>
      <set comment="kpoint 13">
       <r>   -9.4546    1.0000 </r>
       <r>    0.6534    1.0000 </r>
       <r>    6.2708    1.0000 </r>
       <r>    6.7733    1.0000 </r>
       <r>   17.0908    0.0000 </r>
       <r>   18.4479    0.0000 </r>
       <r>   18.4653    0.0000 </r>
       <r>   24.4890    0.0000 </r>
      </set>
      <set comment="kpoint 14">
       <r>   -8.2925    1.0000 </r>
       <r>   -1.3865    1.0000 </r>
       <r>    6.0385    1.0000 </r>
       <r>    6.2951    1.0000 </r>
       <r>   17.4841    0.0000 </r>
       <r>   18.5638    0.0000 </r>
       <r>   18.6999    0.0000 </r>
       <r>   25.1143    0.0000 </r>
      </set>
      <set comment="kpoint 15">
       <r>   -7.0684    1.0000 </r>
       <r>   -3.1257    1.0000 </r>
       <r>    5.9402    1.0000 </r>
       <r>    5.9743    1.0000 </r>
       <r>   17.7329    0.0000 </r>
       <r>   18.4967    0.0000 </r>
       <r>   18.8160    0.0000 </r>
       <r>   25.6144    0.0000 </r>
      </set>
      <set comment="kpoint 16">
       <r>   -6.5226    1.0000 </r>
       <r>   -3.8013    1.0000 </r>
       <r>    5.7316    1.0000 </r>
       <r>    6.0767    1.0000 </r>
       <r>   17.9227    0.0000 </r>
       <r>   18.3372    0.0000 </r>
       <r>   18.8384    0.0000 </r>
       <r>   25.7936    0.0000 </r>
      </set>
      <set comment="kpoint 17">
       <r>   -7.4642    1.0000 </r>
       <r>   -2.5988    1.0000 </r>
       <r>    5.6830    1.0000 </r>
       <r>    6.3366    1.0000 </r>
       <r>   18.0790    0.0000 </r>
       <r>   18.1157    0.0000 </r>
       <r>   18.7711    0.0000 </r>
       <r>   25.5936    0.0000 </r>
      </set>
      <set comment="kpoint 18">
       <r>   -8.6972    1.0000 </r>
       <r>   -0.7253    1.0000 </r>
       <r>    5.8016    1.0000 </r>
       <r>    6.7377    1.0000 </r>
       <r>   17.7940    0.0000 </r>
       <r>   18.1494    0.0000 </r>
       <r>   18.5926    0.0000 </r>
       <r>   25.0921    0.0000 </r>
      </set>
      <set comment="kpoint 19">
       <r>   -9.8030    1.0000 </r>
       <r>    1.3714    1.0000 </r>
       <r>    6.0872    1.0000 </r>
       <r>    7.2521    1.0000 </r>
       <r>   17.3037    0.0000 </r>
       <r>   18.0366    0.0000 </r>
       <r>   18.2437    0.0000 </r>
       <r>   24.4825    0.0000 </r>
      </set>
      <set comment="kpoint 20">
       <r>  -10.7066    1.0000 </r>
       <r>    3.5570    1.0000 </r>
       <r>    6.5293    1.0000 </r>
       <r>    7.8308    1.0000 </r>
       <r>   16.6315    0.0000 </r>
       <r>   17.5999    0.0000 </r>
       <r>   17.7162    0.0000 </r>
       <r>   23.9417    0.0000 </r>
      </set>
      <set comment="kpoint 21">
       <r>  -11.3847    1.0000 </r>
       <r>    5.6914    1.0000 </r>
       <r>    7.1041    1.0000 </r>
       <r>    8.3823    1.0000 </r>
       <r>   15.9018    0.0000 </r>
       <r>   16.7870    0.0000 </r>
       <r>   17.0661    0.0000 </r>
       <r>   23.5281    0.0000 </r>
      </set>
      <set comment="kpoint 22">
       <r>  -11.8272    1.0000 </r>
       <r>    7.4432    1.0000 </r>
       <r>    7.8404    1.0000 </r>
       <r>    8.7485    1.0000 </r>
       <r>   15.3713    0.0000 </r>
       <r>   15.9303    0.0000 </r>
       <r>   16.2162    0.0000 </r>
       <r>   23.2424    0.0000 </r>
      </set>
      <set comment="kpoint 23">
       <r>  -11.5048    1.0000 </r>
       <r>    7.1632    1.0000 </r>
       <r>    7.1632    1.0000 </r>
       <r>    7.4752    1.0000 </r>
       <r>   14.6750    0.0000 </r>
       <r>   17.4170    0.0000 </r>
       <r>   17.4170    0.0000 </r>
       <r>   22.9937    0.0000 </r>
      </set>
      <set comment="kpoint 24">
       <r>  -11.0636    1.0000 </r>
       <r>    5.6112    1.0000 </r>
       <r>    6.5301    1.0000 </r>
       <r>    7.2057    1.0000 </r>
       <r>   14.8338    0.0000 </r>
       <r>   18.3374    0.0000 </r>
       <r>   18.3524    0.0000 </r>
       <r>   22.7215    0.0000 </r>
      </set>
      <set comment="kpoint 25">
       <r>  -10.3878    1.0000 </r>
       <r>    3.6105    1.0000 </r>
       <r>    5.9973    1.0000 </r>
       <r>    6.7336    1.0000 </r>
       <r>   15.4467    0.0000 </r>
       <r>   19.0629    0.0000 </r>
       <r>   19.1305    0.0000 </r>
       <r>   22.5761    0.0000 </r>
      </set>
      <set comment="kpoint 26">
       <r>   -9.4879    1.0000 </r>
       <r>    1.5177    1.0000 </r>
       <r>    5.6170    1.0000 </r>
       <r>    6.1234    1.0000 </r>
       <r>   16.1568    0.0000 </r>
       <r>   19.5413    0.0000 </r>
       <r>   19.6041    0.0000 </r>
       <r>   22.7916    0.0000 </r>
      </set>
      <set comment="kpoint 27">
       <r>   -8.3877    1.0000 </r>
       <r>   -0.5176    1.0000 </r>
       <r>    5.4137    1.0000 </r>
       <r>    5.5163    1.0000 </r>
       <r>   16.7076    0.0000 </r>
       <r>   19.7444    0.0000 </r>
       <r>   19.8246    0.0000 </r>
       <r>   23.4922    0.0000 </r>
      </set>
      <set comment="kpoint 28">
       <r>   -7.1635    1.0000 </r>
       <r>   -2.3501    1.0000 </r>
       <r>    4.9944    1.0000 </r>
       <r>    5.3956    1.0000 </r>
       <r>   17.0822    0.0000 </r>
       <r>   19.6289    0.0000 </r>
       <r>   19.9702    0.0000 </r>
       <r>   24.4974    0.0000 </r>
      </set>
      <set comment="kpoint 29">
       <r>   -6.2346    1.0000 </r>
       <r>   -3.5246    1.0000 </r>
       <r>    4.6053    1.0000 </r>
       <r>    5.5594    1.0000 </r>
       <r>   17.3895    0.0000 </r>
       <r>   19.3583    0.0000 </r>
       <r>   20.0173    0.0000 </r>
       <r>   25.3305    0.0000 </r>
      </set>
      <set comment="kpoint 30">
       <r>   -6.7772    1.0000 </r>
       <r>   -2.8514    1.0000 </r>
       <r>    4.3780    1.0000 </r>
       <r>    5.8921    1.0000 </r>
       <r>   17.6983    0.0000 </r>
       <r>   18.9870    0.0000 </r>
       <r>   19.9769    0.0000 </r>
       <r>   25.4368    0.0000 </r>
      </set>
      <set comment="kpoint 31">
       <r>   -7.9903    1.0000 </r>
       <r>   -1.1383    1.0000 </r>
       <r>    4.3311    1.0000 </r>
       <r>    6.3693    1.0000 </r>
       <r>   17.9881    0.0000 </r>
       <r>   18.5037    0.0000 </r>
       <r>   19.8211    0.0000 </r>
       <r>   24.8361    0.0000 </r>
      </set>
      <set comment="kpoint 32">
       <r>   -9.1444    1.0000 </r>
       <r>    0.8554    1.0000 </r>
       <r>    4.4772    1.0000 </r>
       <r>    6.9505    1.0000 </r>
       <r>   17.8690    0.0000 </r>
       <r>   18.1634    0.0000 </r>
       <r>   19.4524    0.0000 </r>
       <r>   24.1050    0.0000 </r>
      </set>
      <set comment="kpoint 33">
       <r>  -10.1138    1.0000 </r>
       <r>    2.9280    1.0000 </r>
       <r>    4.8366    1.0000 </r>
       <r>    7.5671    1.0000 </r>
       <r>   17.1016    0.0000 </r>
       <r>   18.1046    0.0000 </r>
       <r>   18.7467    0.0000 </r>
       <r>   23.6769    0.0000 </r>
      </set>
      <set comment="kpoint 34">
       <r>  -10.8651    1.0000 </r>
       <r>    4.7456    1.0000 </r>
       <r>    5.5911    1.0000 </r>
       <r>    8.1019    1.0000 </r>
       <r>   16.3559    0.0000 </r>
       <r>   17.7353    0.0000 </r>
       <r>   17.7689    0.0000 </r>
       <r>   23.5643    0.0000 </r>
      </set>
      <set comment="kpoint 35">
       <r>  -10.7037    1.0000 </r>
       <r>    5.8716    1.0000 </r>
       <r>    5.8716    1.0000 </r>
       <r>    5.8937    1.0000 </r>
       <r>   14.3542    0.0000 </r>
       <r>   19.4174    0.0000 </r>
       <r>   19.4174    0.0000 </r>
       <r>   21.7894    0.0000 </r>
      </set>
      <set comment="kpoint 36">
       <r>  -10.1087    1.0000 </r>
       <r>    4.1972    1.0000 </r>
       <r>    5.3161    1.0000 </r>
       <r>    5.6730    1.0000 </r>
       <r>   14.5277    0.0000 </r>
       <r>   20.3252    0.0000 </r>
       <r>   20.3538    0.0000 </r>
       <r>   21.0528    0.0000 </r>
      </set>
      <set comment="kpoint 37">
       <r>   -9.2871    1.0000 </r>
       <r>    2.3193    1.0000 </r>
       <r>    4.9188    1.0000 </r>
       <r>    5.1080    1.0000 </r>
       <r>   15.1582    0.0000 </r>
       <r>   20.7030    0.0000 </r>
       <r>   20.9880    0.0000 </r>
       <r>   21.0374    0.0000 </r>
      </set>
      <set comment="kpoint 38">
       <r>   -8.2575    1.0000 </r>
       <r>    0.3972    1.0000 </r>
       <r>    4.4118    1.0000 </r>
       <r>    4.7076    1.0000 </r>
       <r>   15.8257    0.0000 </r>
       <r>   21.0847    0.0000 </r>
       <r>   21.2434    0.0000 </r>
       <r>   21.4744    0.0000 </r>
      </set>
      <set comment="kpoint 39">
       <r>   -7.0705    1.0000 </r>
       <r>   -1.4261    1.0000 </r>
       <r>    3.7446    1.0000 </r>
       <r>    4.6927    1.0000 </r>
       <r>   16.3017    0.0000 </r>
       <r>   21.1632    0.0000 </r>
       <r>   21.4814    0.0000 </r>
       <r>   22.4344    0.0000 </r>
      </set>
      <set comment="kpoint 40">
       <r>   -5.9548    1.0000 </r>
       <r>   -2.8642    1.0000 </r>
       <r>    3.1944    1.0000 </r>
       <r>    4.8723    1.0000 </r>
       <r>   16.6704    0.0000 </r>
       <r>   20.8421    0.0000 </r>
       <r>   21.5856    0.0000 </r>
       <r>   23.9172    0.0000 </r>
      </set>
      <set comment="kpoint 41">
       <r>   -5.9713    1.0000 </r>
       <r>   -2.8288    1.0000 </r>
       <r>    2.8104    1.0000 </r>
       <r>    5.2331    1.0000 </r>
       <r>   17.0572    0.0000 </r>
       <r>   20.3492    0.0000 </r>
       <r>   21.5809    0.0000 </r>
       <r>   24.9885    0.0000 </r>
      </set>
      <set comment="kpoint 42">
       <r>   -7.0895    1.0000 </r>
       <r>   -1.3521    1.0000 </r>
       <r>    2.6256    1.0000 </r>
       <r>    5.7482    1.0000 </r>
       <r>   17.4885    0.0000 </r>
       <r>   19.6955    0.0000 </r>
       <r>   21.4486    0.0000 </r>
       <r>   24.6578    0.0000 </r>
      </set>
      <set comment="kpoint 43">
       <r>   -8.2709    1.0000 </r>
       <r>    0.4762    1.0000 </r>
       <r>    2.6849    1.0000 </r>
       <r>    6.3708    1.0000 </r>
       <r>   17.8987    0.0000 </r>
       <r>   18.8711    0.0000 </r>
       <r>   21.0019    0.0000 </r>
       <r>   23.8143    0.0000 </r>
      </set>
      <set comment="kpoint 44">
       <r>   -9.2957    1.0000 </r>
       <r>    2.1309    1.0000 </r>
       <r>    3.2467    1.0000 </r>
       <r>    7.0209    1.0000 </r>
       <r>   17.9410    0.0000 </r>
       <r>   18.1523    0.0000 </r>
       <r>   20.0085    0.0000 </r>
       <r>   23.4998    0.0000 </r>
      </set>
      <set comment="kpoint 45">
       <r>   -9.5949    1.0000 </r>
       <r>    3.9809    1.0000 </r>
       <r>    4.7292    1.0000 </r>
       <r>    4.7292    1.0000 </r>
       <r>   14.0849    0.0000 </r>
       <r>   19.7924    0.0000 </r>
       <r>   21.4960    0.0000 </r>
       <r>   21.4960    0.0000 </r>
      </set>
      <set comment="kpoint 46">
       <r>   -8.8538    1.0000 </r>
       <r>    2.6206    1.0000 </r>
       <r>    4.2101    1.0000 </r>
       <r>    4.2986    1.0000 </r>
       <r>   14.3180    0.0000 </r>
       <r>   19.0427    0.0000 </r>
       <r>   22.3538    0.0000 </r>
       <r>   22.3589    0.0000 </r>
      </set>
      <set comment="kpoint 47">
       <r>   -7.9003    1.0000 </r>
       <r>    1.0343    1.0000 </r>
       <r>    3.4323    1.0000 </r>
       <r>    4.0565    1.0000 </r>
       <r>   14.9717    0.0000 </r>
       <r>   19.0095    0.0000 </r>
       <r>   22.8042    0.0000 </r>
       <r>   22.8998    0.0000 </r>
      </set>
      <set comment="kpoint 48">
       <r>   -6.7703    1.0000 </r>
       <r>   -0.5892    1.0000 </r>
       <r>    2.5808    1.0000 </r>
       <r>    4.0167    1.0000 </r>
       <r>   15.5558    0.0000 </r>
       <r>   19.9033    0.0000 </r>
       <r>   22.8345    0.0000 </r>
       <r>   23.1978    0.0000 </r>
      </set>
      <set comment="kpoint 49">
       <r>   -5.5966    1.0000 </r>
       <r>   -2.0499    1.0000 </r>
       <r>    1.8345    1.0000 </r>
       <r>    4.1798    1.0000 </r>
       <r>   15.9637    0.0000 </r>
       <r>   21.5223    0.0000 </r>
       <r>   22.5155    0.0000 </r>
       <r>   23.3739    0.0000 </r>
      </set>
      <set comment="kpoint 50">
       <r>   -5.1240    1.0000 </r>
       <r>   -2.5556    1.0000 </r>
       <r>    1.2822    1.0000 </r>
       <r>    4.5344    1.0000 </r>
       <r>   16.3708    0.0000 </r>
       <r>   21.9199    0.0000 </r>
       <r>   22.9738    0.0000 </r>
       <r>   23.8575    0.0000 </r>
      </set>
      <set comment="kpoint 51">
       <r>   -6.0358    1.0000 </r>
       <r>   -1.4326    1.0000 </r>
       <r>    0.9947    1.0000 </r>
       <r>    5.0550    1.0000 </r>
       <r>   16.8607    0.0000 </r>
       <r>   21.0777    0.0000 </r>
       <r>   23.1381    0.0000 </r>
       <r>   24.4651    0.0000 </r>
      </set>
      <set comment="kpoint 52">
       <r>   -7.2094    1.0000 </r>
       <r>   -0.0825    1.0000 </r>
       <r>    1.2604    1.0000 </r>
       <r>    5.6943    1.0000 </r>
       <r>   17.4067    0.0000 </r>
       <r>   20.0204    0.0000 </r>
       <r>   22.5331    0.0000 </r>
       <r>   23.8203    0.0000 </r>
      </set>
      <set comment="kpoint 53">
       <r>   -8.1938    1.0000 </r>
       <r>    1.8637    1.0000 </r>
       <r>    3.8269    1.0000 </r>
       <r>    3.8269    1.0000 </r>
       <r>   13.9609    0.0000 </r>
       <r>   17.8538    0.0000 </r>
       <r>   23.4758    0.0000 </r>
       <r>   23.4758    0.0000 </r>
      </set>
      <set comment="kpoint 54">
       <r>   -7.3192    1.0000 </r>
       <r>    0.6847    1.0000 </r>
       <r>    3.2129    1.0000 </r>
       <r>    3.5417    1.0000 </r>
       <r>   14.2863    0.0000 </r>
       <r>   17.3138    0.0000 </r>
       <r>   24.1785    0.0000 </r>
       <r>   24.2191    0.0000 </r>
      </set>
      <set comment="kpoint 55">
       <r>   -6.2573    1.0000 </r>
       <r>   -0.5334    1.0000 </r>
       <r>    2.2091    1.0000 </r>
       <r>    3.4607    1.0000 </r>
       <r>   14.9308    0.0000 </r>
       <r>   17.6680    0.0000 </r>
       <r>   24.3816    0.0000 </r>
       <r>   24.6234    0.0000 </r>
      </set>
      <set comment="kpoint 56">
       <r>   -5.0919    1.0000 </r>
       <r>   -1.6944    1.0000 </r>
       <r>    1.1382    1.0000 </r>
       <r>    3.5878    1.0000 </r>
       <r>   15.3836    0.0000 </r>
       <r>   19.0960    0.0000 </r>
       <r>   24.1093    0.0000 </r>
       <r>   24.7951    0.0000 </r>
      </set>
      <set comment="kpoint 57">
       <r>   -4.3020    1.0000 </r>
       <r>   -2.3863    1.0000 </r>
       <r>    0.3038    1.0000 </r>
       <r>    3.9145    1.0000 </r>
       <r>   15.7729    0.0000 </r>
       <r>   21.1420    0.0000 </r>
       <r>   23.4248    0.0000 </r>
       <r>   24.8216    0.0000 </r>
      </set>
      <set comment="kpoint 58">
       <r>   -4.9343    1.0000 </r>
       <r>   -1.7888    1.0000 </r>
       <r>    0.0509    1.0000 </r>
       <r>    4.4181    1.0000 </r>
       <r>   16.2624    0.0000 </r>
       <r>   22.3829    0.0000 </r>
       <r>   23.1402    0.0000 </r>
       <r>   24.6236    0.0000 </r>
      </set>
      <set comment="kpoint 59">
       <r>   -6.5238    1.0000 </r>
       <r>   -0.3444    1.0000 </r>
       <r>    3.2078    1.0000 </r>
       <r>    3.2078    1.0000 </r>
       <r>   14.0585    0.0000 </r>
       <r>   16.2961    0.0000 </r>
       <r>   25.1446    0.0000 </r>
       <r>   25.1446    0.0000 </r>
      </set>
      <set comment="kpoint 60">
       <r>   -5.5357    1.0000 </r>
       <r>   -1.4383    1.0000 </r>
       <r>    2.6618    1.0000 </r>
       <r>    3.0772    1.0000 </r>
       <r>   14.4914    0.0000 </r>
       <r>   16.0154    0.0000 </r>
       <r>   25.5528    0.0000 </r>
       <r>   25.6381    0.0000 </r>
      </set>
      <set comment="kpoint 61">
       <r>   -4.4114    1.0000 </r>
       <r>   -2.4298    1.0000 </r>
       <r>    1.6559    1.0000 </r>
       <r>    3.1573    1.0000 </r>
       <r>   14.9955    0.0000 </r>
       <r>   16.8983    0.0000 </r>
       <r>   25.3676    0.0000 </r>
       <r>   25.7647    0.0000 </r>
      </set>
      <set comment="kpoint 62">
       <r>   -3.6312    1.0000 </r>
       <r>   -2.9431    1.0000 </r>
       <r>    0.6248    1.0000 </r>
       <r>    3.4427    1.0000 </r>
       <r>   15.3253    0.0000 </r>
       <r>   18.8238    0.0000 </r>
       <r>   24.6283    0.0000 </r>
       <r>   25.5443    0.0000 </r>
      </set>
      <set comment="kpoint 63">
       <r>   -4.6209    1.0000 </r>
       <r>   -2.5370    1.0000 </r>
       <r>    2.8936    1.0000 </r>
       <r>    2.8936    1.0000 </r>
       <r>   14.4415    0.0000 </r>
       <r>   15.1692    0.0000 </r>
       <r>   26.1526    0.0000 </r>
       <r>   26.1526    0.0000 </r>
      </set>
      <set comment="kpoint 64">
       <r>   -3.5770    1.0000 </r>
       <r>   -3.5247    1.0000 </r>
       <r>    2.4836    1.0000 </r>
       <r>    2.9208    1.0000 </r>
       <r>   14.8227    0.0000 </r>
       <r>   15.3162    0.0000 </r>
       <r>   26.0856    0.0000 </r>
       <r>   26.1947    0.0000 </r>
      </set>
      <set comment="kpoint 65">
       <r>  -11.3443    1.0000 </r>
       <r>    6.1011    1.0000 </r>
       <r>    6.6773    1.0000 </r>
       <r>    8.1003    1.0000 </r>
       <r>   15.2827    0.0000 </r>
       <r>   17.4071    0.0000 </r>
       <r>   17.4424    0.0000 </r>
       <r>   23.2395    0.0000 </r>
      </set>
      <set comment="kpoint 66">
       <r>  -10.7455    1.0000 </r>
       <r>    4.2929    1.0000 </r>
       <r>    5.9252    1.0000 </r>
       <r>    7.6710    1.0000 </r>
       <r>   15.8812    0.0000 </r>
       <r>   18.1192    0.0000 </r>
       <r>   18.3313    0.0000 </r>
       <r>   23.2707    0.0000 </r>
      </set>
      <set comment="kpoint 67">
       <r>   -9.9178    1.0000 </r>
       <r>    2.1881    1.0000 </r>
       <r>    5.4469    1.0000 </r>
       <r>    7.0949    1.0000 </r>
       <r>   16.6272    0.0000 </r>
       <r>   18.5099    0.0000 </r>
       <r>   19.0758    0.0000 </r>
       <r>   23.4942    0.0000 </r>
      </set>
      <set comment="kpoint 68">
       <r>   -8.8787    1.0000 </r>
       <r>    0.0943    1.0000 </r>
       <r>    5.1415    1.0000 </r>
       <r>    6.5150    1.0000 </r>
       <r>   17.2550    0.0000 </r>
       <r>   18.6344    0.0000 </r>
       <r>   19.5362    0.0000 </r>
       <r>   24.0639    0.0000 </r>
      </set>
      <set comment="kpoint 69">
       <r>   -7.6772    1.0000 </r>
       <r>   -1.8466    1.0000 </r>
       <r>    4.9962    1.0000 </r>
       <r>    6.0313    1.0000 </r>
       <r>   17.6693    0.0000 </r>
       <r>   18.5748    0.0000 </r>
       <r>   19.7687    0.0000 </r>
       <r>   24.8582    0.0000 </r>
      </set>
      <set comment="kpoint 70">
       <r>   -6.5376    1.0000 </r>
       <r>   -3.3653    1.0000 </r>
       <r>    4.9681    1.0000 </r>
       <r>    5.7346    1.0000 </r>
       <r>   17.8935    0.0000 </r>
       <r>   18.4618    0.0000 </r>
       <r>   19.8639    0.0000 </r>
       <r>   25.4712    0.0000 </r>
      </set>
      <set comment="kpoint 71">
       <r>  -10.5455    1.0000 </r>
       <r>    4.6878    1.0000 </r>
       <r>    5.4217    1.0000 </r>
       <r>    6.8086    1.0000 </r>
       <r>   14.9903    0.0000 </r>
       <r>   19.1177    0.0000 </r>
       <r>   19.4037    0.0000 </r>
       <r>   22.1589    0.0000 </r>
      </set>
      <set comment="kpoint 72">
       <r>   -9.7966    1.0000 </r>
       <r>    2.9583    1.0000 </r>
       <r>    4.7340    1.0000 </r>
       <r>    6.3250    1.0000 </r>
       <r>   15.6255    0.0000 </r>
       <r>   19.5921    0.0000 </r>
       <r>   20.3327    0.0000 </r>
       <r>   21.8542    0.0000 </r>
      </set>
      <set comment="kpoint 73">
       <r>   -8.8310    1.0000 </r>
       <r>    0.9815    1.0000 </r>
       <r>    4.3483    1.0000 </r>
       <r>    5.7404    1.0000 </r>
       <r>   16.3654    0.0000 </r>
       <r>   19.7599    0.0000 </r>
       <r>   20.9272    0.0000 </r>
       <r>   22.1535    0.0000 </r>
      </set>
      <set comment="kpoint 74">
       <r>   -7.6829    1.0000 </r>
       <r>   -0.9451    1.0000 </r>
       <r>    4.0939    1.0000 </r>
       <r>    5.2435    1.0000 </r>
       <r>   16.9261    0.0000 </r>
       <r>   19.6944    0.0000 </r>
       <r>   21.2428    0.0000 </r>
       <r>   23.0738    0.0000 </r>
      </set>
      <set comment="kpoint 75">
       <r>   -6.4796    1.0000 </r>
       <r>   -2.6121    1.0000 </r>
       <r>    3.8640    1.0000 </r>
       <r>    5.0164    1.0000 </r>
       <r>   17.3066    0.0000 </r>
       <r>   19.4887    0.0000 </r>
       <r>   21.3854    0.0000 </r>
       <r>   24.2782    0.0000 </r>
      </set>
      <set comment="kpoint 76">
       <r>   -5.9515    1.0000 </r>
       <r>   -3.2534    1.0000 </r>
       <r>    3.6288    1.0000 </r>
       <r>    5.1286    1.0000 </r>
       <r>   17.6331    0.0000 </r>
       <r>   19.1895    0.0000 </r>
       <r>   21.3843    0.0000 </r>
       <r>   25.0772    0.0000 </r>
      </set>
      <set comment="kpoint 77">
       <r>   -6.8741    1.0000 </r>
       <r>   -2.0854    1.0000 </r>
       <r>    3.4798    1.0000 </r>
       <r>    5.4990    1.0000 </r>
       <r>   17.9594    0.0000 </r>
       <r>   18.7999    0.0000 </r>
       <r>   21.2608    0.0000 </r>
       <r>   24.6967    0.0000 </r>
      </set>
      <set comment="kpoint 78">
       <r>   -8.0871    1.0000 </r>
       <r>   -0.2867    1.0000 </r>
       <r>    3.4925    1.0000 </r>
       <r>    6.0379    1.0000 </r>
       <r>   18.0306    0.0000 </r>
       <r>   18.4817    0.0000 </r>
       <r>   20.9828    0.0000 </r>
       <r>   23.7297    0.0000 </r>
      </set>
      <set comment="kpoint 79">
       <r>   -9.1790    1.0000 </r>
       <r>    1.6651    1.0000 </r>
       <r>    3.7223    1.0000 </r>
       <r>    6.6619    1.0000 </r>
       <r>   17.3408    0.0000 </r>
       <r>   18.5970    0.0000 </r>
       <r>   20.4044    0.0000 </r>
       <r>   23.0515    0.0000 </r>
      </set>
      <set comment="kpoint 80">
       <r>  -10.0733    1.0000 </r>
       <r>    3.3951    1.0000 </r>
       <r>    4.3944    1.0000 </r>
       <r>    7.2581    1.0000 </r>
       <r>   16.5018    0.0000 </r>
       <r>   18.5253    0.0000 </r>
       <r>   19.4394    0.0000 </r>
       <r>   22.9874    0.0000 </r>
      </set>
      <set comment="kpoint 81">
       <r>   -9.4405    1.0000 </r>
       <r>    3.2362    1.0000 </r>
       <r>    4.3068    1.0000 </r>
       <r>    5.2726    1.0000 </r>
       <r>   14.7333    0.0000 </r>
       <r>   20.2476    0.0000 </r>
       <r>   20.9744    0.0000 </r>
       <r>   21.5027    0.0000 </r>
      </set>
      <set comment="kpoint 82">
       <r>   -8.5526    1.0000 </r>
       <r>    1.6884    1.0000 </r>
       <r>    3.6447    1.0000 </r>
       <r>    4.7676    1.0000 </r>
       <r>   15.4196    0.0000 </r>
       <r>   20.0083    0.0000 </r>
       <r>   21.2670    0.0000 </r>
       <r>   22.3977    0.0000 </r>
      </set>
      <set comment="kpoint 83">
       <r>   -7.4705    1.0000 </r>
       <r>   -0.0579    1.0000 </r>
       <r>    3.1569    1.0000 </r>
       <r>    4.3300    1.0000 </r>
       <r>   16.1200    0.0000 </r>
       <r>   20.5268    0.0000 </r>
       <r>   21.3103    0.0000 </r>
       <r>   22.9505    0.0000 </r>
      </set>
      <set comment="kpoint 84">
       <r>   -6.2731    1.0000 </r>
       <r>   -1.7143    1.0000 </r>
       <r>    2.6480    1.0000 </r>
       <r>    4.2043    1.0000 </r>
       <r>   16.5956    0.0000 </r>
       <r>   21.0186    0.0000 </r>
       <r>   21.8791    0.0000 </r>
       <r>   23.2528    0.0000 </r>
      </set>
      <set comment="kpoint 85">
       <r>   -5.3825    1.0000 </r>
       <r>   -2.7816    1.0000 </r>
       <r>    2.1837    1.0000 </r>
       <r>    4.3858    1.0000 </r>
       <r>   16.9808    0.0000 </r>
       <r>   20.7032    0.0000 </r>
       <r>   22.7811    0.0000 </r>
       <r>   23.9129    0.0000 </r>
      </set>
      <set comment="kpoint 86">
       <r>   -5.9238    1.0000 </r>
       <r>   -2.1108    1.0000 </r>
       <r>    1.8688    1.0000 </r>
       <r>    4.7967    1.0000 </r>
       <r>   17.4072    0.0000 </r>
       <r>   20.1774    0.0000 </r>
       <r>   22.7609    0.0000 </r>
       <r>   24.5022    0.0000 </r>
      </set>
      <set comment="kpoint 87">
       <r>   -7.1023    1.0000 </r>
       <r>   -0.5319    1.0000 </r>
       <r>    1.7882    1.0000 </r>
       <r>    5.3714    1.0000 </r>
       <r>   17.8877    0.0000 </r>
       <r>   19.3969    0.0000 </r>
       <r>   22.5127    0.0000 </r>
       <r>   23.6393    0.0000 </r>
      </set>
      <set comment="kpoint 88">
       <r>   -8.2287    1.0000 </r>
       <r>    0.9700    1.0000 </r>
       <r>    2.2269    1.0000 </r>
       <r>    6.0325    1.0000 </r>
       <r>   18.3377    0.0000 </r>
       <r>   18.3771    0.0000 </r>
       <r>   21.7550    0.0000 </r>
       <r>   22.9402    0.0000 </r>
      </set>
      <set comment="kpoint 89">
       <r>   -8.0462    1.0000 </r>
       <r>    1.5741    1.0000 </r>
       <r>    3.4299    1.0000 </r>
       <r>    3.9323    1.0000 </r>
       <r>   14.6123    0.0000 </r>
       <r>   18.3739    0.0000 </r>
       <r>   22.8300    0.0000 </r>
       <r>   23.4967    0.0000 </r>
      </set>
      <set comment="kpoint 90">
       <r>   -7.0375    1.0000 </r>
       <r>    0.2947    1.0000 </r>
       <r>    2.6324    1.0000 </r>
       <r>    3.5554    1.0000 </r>
       <r>   15.3504    0.0000 </r>
       <r>   18.4334    0.0000 </r>
       <r>   22.9673    0.0000 </r>
       <r>   24.2234    0.0000 </r>
      </set>
      <set comment="kpoint 91">
       <r>   -5.8812    1.0000 </r>
       <r>   -1.0654    1.0000 </r>
       <r>    1.7459    1.0000 </r>
       <r>    3.4844    1.0000 </r>
       <r>   15.9519    0.0000 </r>
       <r>   19.4963    0.0000 </r>
       <r>   22.8429    0.0000 </r>
       <r>   24.4966    0.0000 </r>
      </set>
      <set comment="kpoint 92">
       <r>   -4.8154    1.0000 </r>
       <r>   -2.2081    1.0000 </r>
       <r>    0.9855    1.0000 </r>
       <r>    3.6846    1.0000 </r>
       <r>   16.3584    0.0000 </r>
       <r>   21.2963    0.0000 </r>
       <r>   22.4900    0.0000 </r>
       <r>   24.4010    0.0000 </r>
      </set>
      <set comment="kpoint 93">
       <r>   -4.9006    1.0000 </r>
       <r>   -2.0547    1.0000 </r>
       <r>    0.4990    1.0000 </r>
       <r>    4.1019    1.0000 </r>
       <r>   16.7936    0.0000 </r>
       <r>   21.7890    0.0000 </r>
       <r>   23.1805    0.0000 </r>
       <r>   24.1040    0.0000 </r>
      </set>
      <set comment="kpoint 94">
       <r>   -5.9762    1.0000 </r>
       <r>   -0.9911    1.0000 </r>
       <r>    0.5758    1.0000 </r>
       <r>    4.6874    1.0000 </r>
       <r>   17.3218    0.0000 </r>
       <r>   20.7248    0.0000 </r>
       <r>   23.6392    0.0000 </r>
       <r>   23.8184    0.0000 </r>
      </set>
      <set comment="kpoint 95">
       <r>   -6.3883    1.0000 </r>
       <r>   -0.3866    1.0000 </r>
       <r>    2.8393    1.0000 </r>
       <r>    3.0607    1.0000 </r>
       <r>   14.7041    0.0000 </r>
       <r>   16.8650    0.0000 </r>
       <r>   24.5066    0.0000 </r>
       <r>   25.1228    0.0000 </r>
      </set>
      <set comment="kpoint 96">
       <r>   -5.2917    1.0000 </r>
       <r>   -1.4407    1.0000 </r>
       <r>    1.9022    1.0000 </r>
       <r>    2.9386    1.0000 </r>
       <r>   15.4456    0.0000 </r>
       <r>   17.3113    0.0000 </r>
       <r>   24.4918    0.0000 </r>
       <r>   25.4386    0.0000 </r>
      </set>
      <set comment="kpoint 97">
       <r>   -4.1737    1.0000 </r>
       <r>   -2.3615    1.0000 </r>
       <r>    0.8143    1.0000 </r>
       <r>    3.1232    1.0000 </r>
       <r>   15.8734    0.0000 </r>
       <r>   18.9406    0.0000 </r>
       <r>   24.1404    0.0000 </r>
       <r>   25.1926    0.0000 </r>
      </set>
      <set comment="kpoint 98">
       <r>   -3.9887    1.0000 </r>
       <r>   -2.4202    1.0000 </r>
       <r>    0.1081    1.0000 </r>
       <r>    3.5236    1.0000 </r>
       <r>   16.2726    0.0000 </r>
       <r>   21.1227    0.0000 </r>
       <r>   23.2499    0.0000 </r>
       <r>   24.6874    0.0000 </r>
      </set>
      <set comment="kpoint 99">
       <r>   -4.5083    1.0000 </r>
       <r>   -2.4721    1.0000 </r>
       <r>    2.5638    1.0000 </r>
       <r>    2.6265    1.0000 </r>
       <r>   15.0723    0.0000 </r>
       <r>   15.7750    0.0000 </r>
       <r>   25.7000    0.0000 </r>
       <r>   25.9672    0.0000 </r>
      </set>
      <set comment="kpoint 100">
       <r>   -3.4754    1.0000 </r>
       <r>   -3.2867    1.0000 </r>
       <r>    1.6607    1.0000 </r>
       <r>    2.7520    1.0000 </r>
       <r>   15.5626    0.0000 </r>
       <r>   16.8481    0.0000 </r>
       <r>   25.3430    0.0000 </r>
       <r>   25.6624    0.0000 </r>
      </set>
      <set comment="kpoint 101">
       <r>   -8.9811    1.0000 </r>
       <r>    2.1126    1.0000 </r>
       <r>    3.3281    1.0000 </r>
       <r>    5.8228    1.0000 </r>
       <r>   16.3579    0.0000 </r>
       <r>   19.7206    0.0000 </r>
       <r>   21.4613    0.0000 </r>
       <r>   21.5504    0.0000 </r>
      </set>
      <set comment="kpoint 102">
       <r>   -7.9603    1.0000 </r>
       <r>    0.5522    1.0000 </r>
       <r>    2.7332    1.0000 </r>
       <r>    5.1976    1.0000 </r>
       <r>   17.2553    0.0000 </r>
       <r>   19.5408    0.0000 </r>
       <r>   21.6395    0.0000 </r>
       <r>   22.5706    0.0000 </r>
      </set>
      <set comment="kpoint 103">
       <r>   -6.7853    1.0000 </r>
       <r>   -1.1897    1.0000 </r>
       <r>    2.5631    1.0000 </r>
       <r>    4.6342    1.0000 </r>
       <r>   17.8955    0.0000 </r>
       <r>   19.3073    0.0000 </r>
       <r>   22.2622    0.0000 </r>
       <r>   23.4176    0.0000 </r>
      </set>
      <set comment="kpoint 104">
       <r>   -5.6791    1.0000 </r>
       <r>   -2.6091    1.0000 </r>
       <r>    2.5360    1.0000 </r>
       <r>    4.2906    1.0000 </r>
       <r>   18.1639    0.0000 </r>
       <r>   19.1718    0.0000 </r>
       <r>   22.7535    0.0000 </r>
       <r>   24.2411    0.0000 </r>
      </set>
      <set comment="kpoint 105">
       <r>   -7.6089    1.0000 </r>
       <r>    0.8444    1.0000 </r>
       <r>    2.5014    1.0000 </r>
       <r>    4.1987    1.0000 </r>
       <r>   16.2836    0.0000 </r>
       <r>   19.7036    0.0000 </r>
       <r>   21.3014    0.0000 </r>
       <r>   23.5609    0.0000 </r>
      </set>
      <set comment="kpoint 106">
       <r>   -6.4927    1.0000 </r>
       <r>   -0.4630    1.0000 </r>
       <r>    1.9009    1.0000 </r>
       <r>    3.6275    1.0000 </r>
       <r>   17.2039    0.0000 </r>
       <r>   20.0564    0.0000 </r>
       <r>   21.2510    0.0000 </r>
       <r>   24.2472    0.0000 </r>
      </set>
      <set comment="kpoint 107">
       <r>   -5.3320    1.0000 </r>
       <r>   -1.8441    1.0000 </r>
       <r>    1.5480    1.0000 </r>
       <r>    3.3432    1.0000 </r>
       <r>   17.7487    0.0000 </r>
       <r>   20.4982    0.0000 </r>
       <r>   21.8769    0.0000 </r>
       <r>   24.2919    0.0000 </r>
      </set>
      <set comment="kpoint 108">
       <r>   -4.8413    1.0000 </r>
       <r>   -2.3800    1.0000 </r>
       <r>    1.2562    1.0000 </r>
       <r>    3.4568    1.0000 </r>
       <r>   18.1303    0.0000 </r>
       <r>   20.2261    0.0000 </r>
       <r>   23.2733    0.0000 </r>
       <r>   23.6850    0.0000 </r>
      </set>
      <set comment="kpoint 109">
       <r>   -5.7361    1.0000 </r>
       <r>   -1.3366    1.0000 </r>
       <r>    1.1194    1.0000 </r>
       <r>    3.8887    1.0000 </r>
       <r>   18.5542    0.0000 </r>
       <r>   19.5890    0.0000 </r>
       <r>   22.5525    0.0000 </r>
       <r>   24.1508    0.0000 </r>
      </set>
      <set comment="kpoint 110">
       <r>   -6.9031    1.0000 </r>
       <r>   -0.0755    1.0000 </r>
       <r>    1.4584    1.0000 </r>
       <r>    4.5157    1.0000 </r>
       <r>   18.4808    0.0000 </r>
       <r>   19.0755    0.0000 </r>
       <r>   21.8636    0.0000 </r>
       <r>   23.6825    0.0000 </r>
      </set>
      <set comment="kpoint 111">
       <r>   -5.9924    1.0000 </r>
       <r>   -0.5978    1.0000 </r>
       <r>    1.9754    1.0000 </r>
       <r>    2.8396    1.0000 </r>
       <r>   16.3853    0.0000 </r>
       <r>   18.3690    0.0000 </r>
       <r>   22.8586    0.0000 </r>
       <r>   25.0093    0.0000 </r>
      </set>
      <set comment="kpoint 112">
       <r>   -4.8449    1.0000 </r>
       <r>   -1.6027    1.0000 </r>
       <r>    1.2102    1.0000 </r>
       <r>    2.5366    1.0000 </r>
       <r>   17.2404    0.0000 </r>
       <r>   19.3267    0.0000 </r>
       <r>   22.6039    0.0000 </r>
       <r>   24.8859    0.0000 </r>
      </set>
      <set comment="kpoint 113">
       <r>   -4.0331    1.0000 </r>
       <r>   -2.2986    1.0000 </r>
       <r>    0.5046    1.0000 </r>
       <r>    2.7259    1.0000 </r>
       <r>   17.6623    0.0000 </r>
       <r>   21.1673    0.0000 </r>
       <r>   22.2315    0.0000 </r>
       <r>   23.9270    0.0000 </r>
      </set>
      <set comment="kpoint 114">
       <r>   -4.6408    1.0000 </r>
       <r>   -1.7619    1.0000 </r>
       <r>    0.3079    1.0000 </r>
       <r>    3.2117    1.0000 </r>
       <r>   18.0920    0.0000 </r>
       <r>   21.0700    0.0000 </r>
       <r>   22.9721    0.0000 </r>
       <r>   23.3164    0.0000 </r>
      </set>
      <set comment="kpoint 115">
       <r>   -4.1941    1.0000 </r>
       <r>   -2.3302    1.0000 </r>
       <r>    1.8011    1.0000 </r>
       <r>    2.0506    1.0000 </r>
       <r>   16.7321    0.0000 </r>
       <r>   17.3785    0.0000 </r>
       <r>   24.3342    0.0000 </r>
       <r>   25.2684    0.0000 </r>
      </set>
      <set comment="kpoint 116">
       <r>   -3.3466    1.0000 </r>
       <r>   -2.9016    1.0000 </r>
       <r>    0.9040    1.0000 </r>
       <r>    2.2025    1.0000 </r>
       <r>   17.2859    0.0000 </r>
       <r>   19.0043    0.0000 </r>
       <r>   23.8127    0.0000 </r>
       <r>   24.3101    0.0000 </r>
      </set>
      <set comment="kpoint 117">
       <r>   -5.3769    1.0000 </r>
       <r>   -1.0896    1.0000 </r>
       <r>    1.0256    1.0000 </r>
       <r>    2.8883    1.0000 </r>
       <r>   18.6472    0.0000 </r>
       <r>   19.8368    0.0000 </r>
       <r>   21.2809    0.0000 </r>
       <r>   24.5849    0.0000 </r>
      </set>
      <set comment="kpoint 118">
       <r>   -4.3223    1.0000 </r>
       <r>   -1.9953    1.0000 </r>
       <r>    0.7359    1.0000 </r>
       <r>    2.4109    1.0000 </r>
       <r>   19.3147    0.0000 </r>
       <r>   20.1427    0.0000 </r>
       <r>   21.9838    0.0000 </r>
       <r>   23.5399    0.0000 </r>
      </set>
      <set comment="kpoint 119">
       <r>   -3.7660    1.0000 </r>
       <r>   -2.2793    1.0000 </r>
       <r>    1.0301    1.0000 </r>
       <r>    1.6276    1.0000 </r>
       <r>   18.9782    0.0000 </r>
       <r>   19.4886    0.0000 </r>
       <r>   22.3231    0.0000 </r>
       <r>   23.7815    0.0000 </r>
      </set>
      <set comment="kpoint 120">
       <r>   -3.4165    1.0000 </r>
       <r>   -2.4957    1.0000 </r>
       <r>    0.6449    1.0000 </r>
       <r>    1.7027    1.0000 </r>
       <r>   19.4731    0.0000 </r>
       <r>   20.9754    0.0000 </r>
       <r>   22.0335    0.0000 </r>
       <r>   22.3097    0.0000 </r>
      </set>
     </set>
    </set>
   </array>
  </eigenvalues>
  <separator name="orbital magnetization" >
   <v name="MAGDIPOLOUT">      0.00000000      0.00000000      0.00000000</v>
  </separator>
  <dos>
   <i name="efermi">      9.27607851 </i>
   <total>
    <array>
     <dimension dim="1">gridpoints</dimension>
     <dimension dim="2">spin</dimension>
     <field>energy</field>
     <field>total</field>
     <field>integrated</field>
     <set>
      <set comment="spin 1">
       <r>   -14.0677     0.0000     0.0000 </r>
       <r>   -13.9271     0.0000     0.0000 </r>
       <r>   -13.7865     0.0000     0.0000 </r>
       <r>   -13.6459     0.0000     0.0000 </r>
       <r>   -13.5053     0.0000     0.0000 </r>
       <r>   -13.3647     0.0000     0.0000 </r>
       <r>   -13.2241     0.0000     0.0000 </r>
       <r>   -13.0835     0.0000     0.0000 </r>
       <r>   -12.9429     0.0000     0.0000 </r>
       <r>   -12.8023     0.0000     0.0000 </r>
       <r>   -12.6617     0.0000     0.0000 </r>
       <r>   -12.5211     0.0000     0.0000 </r>
       <r>   -12.3805     0.0000     0.0000 </r>
       <r>   -12.2399     0.0000     0.0000 </r>
       <r>   -12.0993     0.0047     0.0007 </r>
       <r>   -11.9587     0.0527     0.0081 </r>
       <r>   -11.8181     0.0363     0.0132 </r>
       <r>   -11.6775     0.1127     0.0290 </r>
       <r>   -11.5369     0.0468     0.0356 </r>
       <r>   -11.3963     0.0654     0.0448 </r>
       <r>   -11.2557     0.1592     0.0672 </r>
       <r>   -11.1152     0.1070     0.0822 </r>
       <r>   -10.9746     0.1267     0.1000 </r>
       <r>   -10.8340     0.0430     0.1061 </r>
       <r>   -10.6934     0.2773     0.1451 </r>
       <r>   -10.5528     0.1021     0.1594 </r>
       <r>   -10.4122     0.1532     0.1810 </r>
       <r>   -10.2716     0.1126     0.1968 </r>
       <r>   -10.1310     0.0926     0.2098 </r>
       <r>    -9.9904     0.2429     0.2440 </r>
       <r>    -9.8498     0.2166     0.2744 </r>
       <r>    -9.7092     0.2844     0.3144 </r>
       <r>    -9.5686     0.0225     0.3176 </r>
       <r>    -9.4280     0.2442     0.3519 </r>
       <r>    -9.2874     0.1445     0.3722 </r>
       <r>    -9.1468     0.3145     0.4164 </r>
       <r>    -9.0062     0.1180     0.4330 </r>
       <r>    -8.8656     0.2780     0.4721 </r>
       <r>    -8.7250     0.3262     0.5180 </r>
       <r>    -8.5844     0.1168     0.5344 </r>
       <r>    -8.4438     0.1706     0.5584 </r>
       <r>    -8.3032     0.1634     0.5814 </r>
       <r>    -8.1626     0.3572     0.6316 </r>
       <r>    -8.0220     0.3077     0.6749 </r>
       <r>    -7.8814     0.4064     0.7320 </r>
       <r>    -7.7408     0.0503     0.7391 </r>
       <r>    -7.6002     0.4426     0.8013 </r>
       <r>    -7.4596     0.2271     0.8332 </r>
       <r>    -7.3190     0.1728     0.8575 </r>
       <r>    -7.1784     0.1294     0.8757 </r>
       <r>    -7.0378     0.6273     0.9639 </r>
       <r>    -6.8972     0.2637     1.0010 </r>
       <r>    -6.7566     0.5248     1.0748 </r>
       <r>    -6.6160     0.1099     1.0902 </r>
       <r>    -6.4754     0.5566     1.1685 </r>
       <r>    -6.3348     0.2779     1.2076 </r>
       <r>    -6.1942     0.3822     1.2613 </r>
       <r>    -6.0536     0.0577     1.2694 </r>
       <r>    -5.9130     0.7822     1.3794 </r>
       <r>    -5.7724     0.3234     1.4249 </r>
       <r>    -5.6318     0.3710     1.4770 </r>
       <r>    -5.4912     0.1941     1.5043 </r>
       <r>    -5.3506     0.3238     1.5498 </r>
       <r>    -5.2100     0.3933     1.6051 </r>
       <r>    -5.0694     0.1709     1.6292 </r>
       <r>    -4.9288     0.1074     1.6443 </r>
       <r>    -4.7882     0.7159     1.7449 </r>
       <r>    -4.6476     0.1178     1.7615 </r>
       <r>    -4.5070     0.1303     1.7798 </r>
       <r>    -4.3664     0.1646     1.8029 </r>
       <r>    -4.2258     0.3195     1.8479 </r>
       <r>    -4.0852     0.2860     1.8881 </r>
       <r>    -3.9446     0.2783     1.9272 </r>
       <r>    -3.8040     0.0738     1.9376 </r>
       <r>    -3.6634     0.1592     1.9600 </r>
       <r>    -3.5228     0.2011     1.9882 </r>
       <r>    -3.3822     0.3321     2.0349 </r>
       <r>    -3.2416     0.4587     2.0994 </r>
       <r>    -3.1010     0.1617     2.1222 </r>
       <r>    -2.9604     0.0457     2.1286 </r>
       <r>    -2.8198     0.3915     2.1836 </r>
       <r>    -2.6792     0.2563     2.2197 </r>
       <r>    -2.5386     0.5773     2.3009 </r>
       <r>    -2.3980     0.5425     2.3771 </r>
       <r>    -2.2574     0.8791     2.5007 </r>
       <r>    -2.1168     0.3857     2.5550 </r>
       <r>    -1.9762     0.7343     2.6582 </r>
       <r>    -1.8356     0.3171     2.7028 </r>
       <r>    -1.6950     0.4943     2.7723 </r>
       <r>    -1.5544     0.2979     2.8142 </r>
       <r>    -1.4138     0.4151     2.8725 </r>
       <r>    -1.2732     0.5056     2.9436 </r>
       <r>    -1.1326     0.2726     2.9819 </r>
       <r>    -0.9920     0.4053     3.0389 </r>
       <r>    -0.8514     0.2386     3.0725 </r>
       <r>    -0.7108     0.0675     3.0820 </r>
       <r>    -0.5702     0.2351     3.1150 </r>
       <r>    -0.4296     0.5840     3.1971 </r>
       <r>    -0.2890     0.2452     3.2316 </r>
       <r>    -0.1484     0.1191     3.2484 </r>
       <r>    -0.0078     0.3600     3.2990 </r>
       <r>     0.1328     0.3178     3.3437 </r>
       <r>     0.2734     0.1445     3.3640 </r>
       <r>     0.4140     0.3885     3.4186 </r>
       <r>     0.5546     0.6389     3.5084 </r>
       <r>     0.6952     0.5156     3.5809 </r>
       <r>     0.8358     0.4566     3.6451 </r>
       <r>     0.9764     0.5621     3.7241 </r>
       <r>     1.1170     0.7563     3.8305 </r>
       <r>     1.2575     0.5179     3.9033 </r>
       <r>     1.3981     0.3028     3.9459 </r>
       <r>     1.5387     0.2886     3.9864 </r>
       <r>     1.6793     0.7212     4.0878 </r>
       <r>     1.8199     0.8165     4.2026 </r>
       <r>     1.9605     0.7610     4.3096 </r>
       <r>     2.1011     0.2635     4.3467 </r>
       <r>     2.2417     0.7300     4.4493 </r>
       <r>     2.3823     0.2275     4.4813 </r>
       <r>     2.5229     0.4681     4.5471 </r>
       <r>     2.6635     1.3105     4.7314 </r>
       <r>     2.8041     0.8555     4.8517 </r>
       <r>     2.9447     0.7461     4.9566 </r>
       <r>     3.0853     0.4448     5.0191 </r>
       <r>     3.2259     0.8307     5.1359 </r>
       <r>     3.3665     0.4801     5.2034 </r>
       <r>     3.5071     1.1791     5.3692 </r>
       <r>     3.6477     1.2368     5.5431 </r>
       <r>     3.7883     0.6975     5.6411 </r>
       <r>     3.9289     0.5451     5.7178 </r>
       <r>     4.0695     0.3901     5.7726 </r>
       <r>     4.2101     0.7433     5.8771 </r>
       <r>     4.3507     1.2241     6.0492 </r>
       <r>     4.4913     0.8032     6.1621 </r>
       <r>     4.6319     0.3961     6.2178 </r>
       <r>     4.7725     0.9344     6.3492 </r>
       <r>     4.9131     0.5380     6.4249 </r>
       <r>     5.0537     0.8723     6.5475 </r>
       <r>     5.1943     0.7035     6.6464 </r>
       <r>     5.3349     0.6053     6.7315 </r>
       <r>     5.4755     0.7165     6.8323 </r>
[...]
       </set>
       <set comment="band 5">
        <r>  0.0414  0.0103  0.2149  0.0182  0.0000  0.0000  0.0000  0.0000  0.0000 </r>
        <r>  0.0414  0.0103  0.2149  0.0182  0.0000  0.0000  0.0000  0.0000  0.0000 </r>
       </set>
       <set comment="band 6">
        <r>  0.0408  0.0714  0.0511  0.0836  0.0000  0.0000  0.0000  0.0000  0.0000 </r>
        <r>  0.0408  0.0714  0.0511  0.0836  0.0000  0.0000  0.0000  0.0000  0.0000 </r>
       </set>
       <set comment="band 7">
        <r>  0.1436  0.0826  0.0020  0.0621  0.0000  0.0000  0.0000  0.0000  0.0000 </r>
        <r>  0.1436  0.0826  0.0020  0.0621  0.0000  0.0000  0.0000  0.0000  0.0000 </r>
       </set>
       <set comment="band 8">
        <r>  0.0306  0.1128  0.0765  0.1580  0.0000  0.0000  0.0000  0.0000  0.0000 </r>
        <r>  0.0306  0.1128  0.0765  0.1580  0.0000  0.0000  0.0000  0.0000  0.0000 </r>
       </set>
      </set>
      <set comment="kpoint 111">
       <set comment="band 1">
        <r>  0.2404  0.0136  0.0036  0.0603  0.0000  0.0000  0.0000  0.0000  0.0000 </r>
        <r>  0.2404  0.0136  0.0036  0.0603  0.0000  0.0000  0.0000  0.0000  0.0000 </r>
       </set>
       <set comment="band 2">
        <r>  0.1949  0.0343  0.0221  0.0994  0.0000  0.0000  0.0000  0.0000  0.0000 </r>
        <r>  0.1949  0.0343  0.0221  0.0994  0.0000  0.0000  0.0000  0.0000  0.0000 </r>
       </set>
       <set comment="band 3">
        <r>  0.0171  0.0693  0.1393  0.0862  0.0000  0.0000  0.0000  0.0000  0.0000 </r>
        <r>  0.0171  0.0693  0.1393  0.0862  0.0000  0.0000  0.0000  0.0000  0.0000 </r>
       </set>
       <set comment="band 4">
        <r>  0.0012  0.1675  0.1293  0.0170  0.0000  0.0000  0.0000  0.0000  0.0000 </r>
        <r>  0.0012  0.1675  0.1293  0.0170  0.0000  0.0000  0.0000  0.0000  0.0000 </r>
       </set>
       <set comment="band 5">
        <r>  0.0793  0.0966  0.0326  0.0286  0.0000  0.0000  0.0000  0.0000  0.0000 </r>
        <r>  0.0793  0.0966  0.0326  0.0286  0.0000  0.0000  0.0000  0.0000  0.0000 </r>
       </set>
       <set comment="band 6">
        <r>  0.0859  0.0019  0.0299  0.0739  0.0000  0.0000  0.0000  0.0000  0.0000 </r>
        <r>  0.0859  0.0019  0.0299  0.0739  0.0000  0.0000  0.0000  0.0000  0.0000 </r>
       </set>
       <set comment="band 7">
        <r>  0.0560  0.1289  0.1367  0.0256  0.0000  0.0000  0.0000  0.0000  0.0000 </r>
        <r>  0.0560  0.1289  0.1367  0.0256  0.0000  0.0000  0.0000  0.0000  0.0000 </r>
       </set>
       <set comment="band 8">
        <r>  0.0137  0.1227  0.1937  0.0716  0.0000  0.0000  0.0000  0.0000  0.0000 </r>
        <r>  0.0137  0.1227  0.1937  0.0716  0.0000  0.0000  0.0000  0.0000  0.0000 </r>
       </set>
      </set>
      <set comment="kpoint 112">
       <set comment="band 1">
        <r>  0.2404  0.0168  0.0042  0.0662  0.0000  0.0000  0.0000  0.0000  0.0000 </r>
        <r>  0.2404  0.0168  0.0042  0.0662  0.0000  0.0000  0.0000  0.0000  0.0000 </r>
       </set>
       <set comment="band 2">
        <r>  0.2045  0.0288  0.0083  0.1036  0.0000  0.0000  0.0000  0.0000  0.0000 </r>
        <r>  0.2045  0.0288  0.0083  0.1036  0.0000  0.0000  0.0000  0.0000  0.0000 </r>
       </set>
       <set comment="band 3">
        <r>  0.0178  0.1732  0.0317  0.0762  0.0000  0.0000  0.0000  0.0000  0.0000 </r>
        <r>  0.0178  0.1732  0.0317  0.0762  0.0000  0.0000  0.0000  0.0000  0.0000 </r>
       </set>
       <set comment="band 4">
        <r>  0.0026  0.0505  0.2516  0.0078  0.0000  0.0000  0.0000  0.0000  0.0000 </r>
        <r>  0.0026  0.0505  0.2516  0.0078  0.0000  0.0000  0.0000  0.0000  0.0000 </r>
       </set>
       <set comment="band 5">
        <r>  0.0764  0.0776  0.0503  0.0224  0.0000  0.0000  0.0000  0.0000  0.0000 </r>
        <r>  0.0764  0.0776  0.0503  0.0224  0.0000  0.0000  0.0000  0.0000  0.0000 </r>
       </set>
       <set comment="band 6">
        <r>  0.0647  0.0484  0.0176  0.0923  0.0000  0.0000  0.0000  0.0000  0.0000 </r>
        <r>  0.0647  0.0484  0.0176  0.0923  0.0000  0.0000  0.0000  0.0000  0.0000 </r>
       </set>
       <set comment="band 7">
        <r>  0.0695  0.1046  0.1514  0.0149  0.0000  0.0000  0.0000  0.0000  0.0000 </r>
        <r>  0.0695  0.1046  0.1514  0.0149  0.0000  0.0000  0.0000  0.0000  0.0000 </r>
       </set>
       <set comment="band 8">
        <r>  0.0321  0.1162  0.1581  0.0872  0.0000  0.0000  0.0000  0.0000  0.0000 </r>
        <r>  0.0321  0.1162  0.1581  0.0872  0.0000  0.0000  0.0000  0.0000  0.0000 </r>
       </set>
      </set>
      <set comment="kpoint 113">
       <set comment="band 1">
        <r>  0.2570  0.0341  0.0065  0.0439  0.0000  0.0000  0.0000  0.0000  0.0000 </r>
        <r>  0.2570  0.0341  0.0065  0.0439  0.0000  0.0000  0.0000  0.0000  0.0000 </r>
       </set>
       <set comment="band 2">
        <r>  0.1928  0.0213  0.0028  0.1169  0.0000  0.0000  0.0000  0.0000  0.0000 </r>
        <r>  0.1928  0.0213  0.0028  0.1169  0.0000  0.0000  0.0000  0.0000  0.0000 </r>
       </set>
       <set comment="band 3">
        <r>  0.0149  0.1868  0.0059  0.0798  0.0000  0.0000  0.0000  0.0000  0.0000 </r>
        <r>  0.0149  0.1868  0.0059  0.0798  0.0000  0.0000  0.0000  0.0000  0.0000 </r>
       </set>
       <set comment="band 4">
        <r>  0.0060  0.0164  0.2832  0.0106  0.0000  0.0000  0.0000  0.0000  0.0000 </r>
        <r>  0.0060  0.0164  0.2832  0.0106  0.0000  0.0000  0.0000  0.0000  0.0000 </r>
       </set>
       <set comment="band 5">
        <r>  0.0707  0.0546  0.0541  0.0406  0.0000  0.0000  0.0000  0.0000  0.0000 </r>
        <r>  0.0707  0.0546  0.0541  0.0406  0.0000  0.0000  0.0000  0.0000  0.0000 </r>
       </set>
       <set comment="band 6">
        <r>  0.0293  0.0837  0.0587  0.0790  0.0000  0.0000  0.0000  0.0000  0.0000 </r>
        <r>  0.0293  0.0837  0.0587  0.0790  0.0000  0.0000  0.0000  0.0000  0.0000 </r>
       </set>
       <set comment="band 7">
        <r>  0.0834  0.0785  0.1588  0.0265  0.0000  0.0000  0.0000  0.0000  0.0000 </r>
        <r>  0.0834  0.0785  0.1588  0.0265  0.0000  0.0000  0.0000  0.0000  0.0000 </r>
       </set>
       <set comment="band 8">
        <r>  0.0680  0.1163  0.0670  0.1067  0.0000  0.0000  0.0000  0.0000  0.0000 </r>
        <r>  0.0680  0.1163  0.0670  0.1067  0.0000  0.0000  0.0000  0.0000  0.0000 </r>
       </set>
      </set>
      <set comment="kpoint 114">
       <set comment="band 1">
        <r>  0.2541  0.0433  0.0063  0.0313  0.0000  0.0000  0.0000  0.0000  0.0000 </r>
        <r>  0.2541  0.0433  0.0063  0.0313  0.0000  0.0000  0.0000  0.0000  0.0000 </r>
       </set>
       <set comment="band 2">
        <r>  0.1935  0.0638  0.0022  0.0798  0.0000  0.0000  0.0000  0.0000  0.0000 </r>
        <r>  0.1935  0.0638  0.0022  0.0798  0.0000  0.0000  0.0000  0.0000  0.0000 </r>
       </set>
       <set comment="band 3">
        <r>  0.0137  0.1372  0.0027  0.1304  0.0000  0.0000  0.0000  0.0000  0.0000 </r>
        <r>  0.0137  0.1372  0.0027  0.1304  0.0000  0.0000  0.0000  0.0000  0.0000 </r>
       </set>
       <set comment="band 4">
        <r>  0.0076  0.0075  0.2913  0.0150  0.0000  0.0000  0.0000  0.0000  0.0000 </r>
        <r>  0.0076  0.0075  0.2913  0.0150  0.0000  0.0000  0.0000  0.0000  0.0000 </r>
       </set>
       <set comment="band 5">
        <r>  0.0612  0.0483  0.0539  0.0609  0.0000  0.0000  0.0000  0.0000  0.0000 </r>
        <r>  0.0612  0.0483  0.0539  0.0609  0.0000  0.0000  0.0000  0.0000  0.0000 </r>
       </set>
       <set comment="band 6">
        <r>  0.0259  0.0058  0.2565  0.0102  0.0000  0.0000  0.0000  0.0000  0.0000 </r>
        <r>  0.0259  0.0058  0.2565  0.0102  0.0000  0.0000  0.0000  0.0000  0.0000 </r>
       </set>
       <set comment="band 7">
        <r>  0.1091  0.1311  0.0003  0.0865  0.0000  0.0000  0.0000  0.0000  0.0000 </r>
        <r>  0.1091  0.1311  0.0003  0.0865  0.0000  0.0000  0.0000  0.0000  0.0000 </r>
       </set>
       <set comment="band 8">
        <r>  0.0620  0.1414  0.0047  0.1391  0.0000  0.0000  0.0000  0.0000  0.0000 </r>
        <r>  0.0620  0.1414  0.0047  0.1391  0.0000  0.0000  0.0000  0.0000  0.0000 </r>
       </set>
      </set>
      <set comment="kpoint 115">
       <set comment="band 1">
        <r>  0.2300  0.0236  0.0040  0.0716  0.0000  0.0000  0.0000  0.0000  0.0000 </r>
        <r>  0.2300  0.0236  0.0040  0.0716  0.0000  0.0000  0.0000  0.0000  0.0000 </r>
       </set>
       <set comment="band 2">
        <r>  0.2179  0.0418  0.0077  0.0746  0.0000  0.0000  0.0000  0.0000  0.0000 </r>
        <r>  0.2179  0.0418  0.0077  0.0746  0.0000  0.0000  0.0000  0.0000  0.0000 </r>
       </set>
       <set comment="band 3">
        <r>  0.0106  0.0677  0.1408  0.0905  0.0000  0.0000  0.0000  0.0000  0.0000 </r>
        <r>  0.0106  0.0677  0.1408  0.0905  0.0000  0.0000  0.0000  0.0000  0.0000 </r>
       </set>
       <set comment="band 4">
        <r>  0.0024  0.1444  0.1399  0.0223  0.0000  0.0000  0.0000  0.0000  0.0000 </r>
        <r>  0.0024  0.1444  0.1399  0.0223  0.0000  0.0000  0.0000  0.0000  0.0000 </r>
       </set>
       <set comment="band 5">
        <r>  0.0868  0.0831  0.0313  0.0183  0.0000  0.0000  0.0000  0.0000  0.0000 </r>
        <r>  0.0868  0.0831  0.0313  0.0183  0.0000  0.0000  0.0000  0.0000  0.0000 </r>
       </set>
       <set comment="band 6">
        <r>  0.0887  0.0034  0.0302  0.0815  0.0000  0.0000  0.0000  0.0000  0.0000 </r>
        <r>  0.0887  0.0034  0.0302  0.0815  0.0000  0.0000  0.0000  0.0000  0.0000 </r>
       </set>
       <set comment="band 7">
        <r>  0.0384  0.1467  0.1548  0.0280  0.0000  0.0000  0.0000  0.0000  0.0000 </r>
        <r>  0.0384  0.1467  0.1548  0.0280  0.0000  0.0000  0.0000  0.0000  0.0000 </r>
       </set>
       <set comment="band 8">
        <r>  0.0230  0.0951  0.1814  0.0971  0.0000  0.0000  0.0000  0.0000  0.0000 </r>
        <r>  0.0230  0.0951  0.1814  0.0971  0.0000  0.0000  0.0000  0.0000  0.0000 </r>
       </set>
      </set>
      <set comment="kpoint 116">
       <set comment="band 1">
        <r>  0.2435  0.0342  0.0080  0.0570  0.0000  0.0000  0.0000  0.0000  0.0000 </r>
        <r>  0.2435  0.0342  0.0080  0.0570  0.0000  0.0000  0.0000  0.0000  0.0000 </r>
       </set>
       <set comment="band 2">
        <r>  0.2170  0.0449  0.0023  0.0723  0.0000  0.0000  0.0000  0.0000  0.0000 </r>
        <r>  0.2170  0.0449  0.0023  0.0723  0.0000  0.0000  0.0000  0.0000  0.0000 </r>
       </set>
       <set comment="band 3">
        <r>  0.0023  0.1754  0.0001  0.1120  0.0000  0.0000  0.0000  0.0000  0.0000 </r>
        <r>  0.0023  0.1754  0.0001  0.1120  0.0000  0.0000  0.0000  0.0000  0.0000 </r>
       </set>
       <set comment="band 4">
        <r>  0.0066  0.0070  0.2842  0.0140  0.0000  0.0000  0.0000  0.0000  0.0000 </r>
        <r>  0.0066  0.0070  0.2842  0.0140  0.0000  0.0000  0.0000  0.0000  0.0000 </r>
       </set>
       <set comment="band 5">
        <r>  0.0813  0.0305  0.0550  0.0473  0.0000  0.0000  0.0000  0.0000  0.0000 </r>
        <r>  0.0813  0.0305  0.0550  0.0473  0.0000  0.0000  0.0000  0.0000  0.0000 </r>
       </set>
       <set comment="band 6">
        <r>  0.0691  0.0833  0.0100  0.0727  0.0000  0.0000  0.0000  0.0000  0.0000 </r>
        <r>  0.0691  0.0833  0.0100  0.0727  0.0000  0.0000  0.0000  0.0000  0.0000 </r>
       </set>
       <set comment="band 7">
        <r>  0.0363  0.0083  0.2978  0.0164  0.0000  0.0000  0.0000  0.0000  0.0000 </r>
        <r>  0.0363  0.0083  0.2978  0.0164  0.0000  0.0000  0.0000  0.0000  0.0000 </r>
       </set>
       <set comment="band 8">
        <r>  0.0572  0.1954  0.0000  0.1118  0.0000  0.0000  0.0000  0.0000  0.0000 </r>
        <r>  0.0572  0.1954  0.0000  0.1118  0.0000  0.0000  0.0000  0.0000  0.0000 </r>
       </set>
      </set>
      <set comment="kpoint 117">
       <set comment="band 1">
        <r>  0.2450  0.0104  0.0082  0.0613  0.0000  0.0000  0.0000  0.0000  0.0000 </r>
        <r>  0.2450  0.0104  0.0082  0.0613  0.0000  0.0000  0.0000  0.0000  0.0000 </r>
       </set>
       <set comment="band 2">
        <r>  0.1947  0.0312  0.0430  0.0781  0.0000  0.0000  0.0000  0.0000  0.0000 </r>
        <r>  0.1947  0.0312  0.0430  0.0781  0.0000  0.0000  0.0000  0.0000  0.0000 </r>
       </set>
       <set comment="band 3">
        <r>  0.0209  0.0548  0.1223  0.0989  0.0000  0.0000  0.0000  0.0000  0.0000 </r>
        <r>  0.0209  0.0548  0.1223  0.0989  0.0000  0.0000  0.0000  0.0000  0.0000 </r>
       </set>
       <set comment="band 4">
        <r>  0.0059  0.1858  0.1001  0.0210  0.0000  0.0000  0.0000  0.0000  0.0000 </r>
        <r>  0.0059  0.1858  0.1001  0.0210  0.0000  0.0000  0.0000  0.0000  0.0000 </r>
       </set>
       <set comment="band 5">
        <r>  0.0549  0.1323  0.0556  0.0225  0.0000  0.0000  0.0000  0.0000  0.0000 </r>
        <r>  0.0549  0.1323  0.0556  0.0225  0.0000  0.0000  0.0000  0.0000  0.0000 </r>
       </set>
       <set comment="band 6">
        <r>  0.0007  0.0386  0.0938  0.0649  0.0000  0.0000  0.0000  0.0000  0.0000 </r>
        <r>  0.0007  0.0386  0.0938  0.0649  0.0000  0.0000  0.0000  0.0000  0.0000 </r>
       </set>
       <set comment="band 7">
        <r>  0.1577  0.0656  0.0567  0.0570  0.0000  0.0000  0.0000  0.0000  0.0000 </r>
        <r>  0.1577  0.0656  0.0567  0.0570  0.0000  0.0000  0.0000  0.0000  0.0000 </r>
       </set>
       <set comment="band 8">
        <r>  0.0349  0.0942  0.1750  0.0898  0.0000  0.0000  0.0000  0.0000  0.0000 </r>
        <r>  0.0349  0.0942  0.1750  0.0898  0.0000  0.0000  0.0000  0.0000  0.0000 </r>
       </set>
      </set>
      <set comment="kpoint 118">
       <set comment="band 1">
        <r>  0.2528  0.0200  0.0113  0.0532  0.0000  0.0000  0.0000  0.0000  0.0000 </r>
        <r>  0.2528  0.0200  0.0113  0.0532  0.0000  0.0000  0.0000  0.0000  0.0000 </r>
       </set>
       <set comment="band 2">
        <r>  0.1915  0.0257  0.0139  0.1056  0.0000  0.0000  0.0000  0.0000  0.0000 </r>
        <r>  0.1915  0.0257  0.0139  0.1056  0.0000  0.0000  0.0000  0.0000  0.0000 </r>
       </set>
       <set comment="band 3">
        <r>  0.0261  0.1048  0.0878  0.0763  0.0000  0.0000  0.0000  0.0000  0.0000 </r>
        <r>  0.0261  0.1048  0.0878  0.0763  0.0000  0.0000  0.0000  0.0000  0.0000 </r>
       </set>
       <set comment="band 4">
        <r>  0.0032  0.1211  0.1627  0.0195  0.0000  0.0000  0.0000  0.0000  0.0000 </r>
        <r>  0.0032  0.1211  0.1627  0.0195  0.0000  0.0000  0.0000  0.0000  0.0000 </r>
       </set>
       <set comment="band 5">
        <r>  0.0228  0.0974  0.0852  0.0215  0.0000  0.0000  0.0000  0.0000  0.0000 </r>
        <r>  0.0228  0.0974  0.0852  0.0215  0.0000  0.0000  0.0000  0.0000  0.0000 </r>
       </set>
       <set comment="band 6">
        <r>  0.0573  0.0628  0.1299  0.0195  0.0000  0.0000  0.0000  0.0000  0.0000 </r>
        <r>  0.0573  0.0628  0.1299  0.0195  0.0000  0.0000  0.0000  0.0000  0.0000 </r>
       </set>
       <set comment="band 7">
        <r>  0.1132  0.0881  0.0100  0.1121  0.0000  0.0000  0.0000  0.0000  0.0000 </r>
        <r>  0.1132  0.0881  0.0100  0.1121  0.0000  0.0000  0.0000  0.0000  0.0000 </r>
       </set>
       <set comment="band 8">
        <r>  0.0604  0.0646  0.1137  0.1125  0.0000  0.0000  0.0000  0.0000  0.0000 </r>
        <r>  0.0604  0.0646  0.1137  0.1125  0.0000  0.0000  0.0000  0.0000  0.0000 </r>
       </set>
      </set>
      <set comment="kpoint 119">
       <set comment="band 1">
        <r>  0.2401  0.0226  0.0105  0.0644  0.0000  0.0000  0.0000  0.0000  0.0000 </r>
        <r>  0.2401  0.0226  0.0105  0.0644  0.0000  0.0000  0.0000  0.0000  0.0000 </r>
       </set>
       <set comment="band 2">
        <r>  0.2268  0.0360  0.0217  0.0629  0.0000  0.0000  0.0000  0.0000  0.0000 </r>
        <r>  0.2268  0.0360  0.0217  0.0629  0.0000  0.0000  0.0000  0.0000  0.0000 </r>
       </set>
       <set comment="band 3">
        <r>  0.0084  0.0493  0.1227  0.1127  0.0000  0.0000  0.0000  0.0000  0.0000 </r>
        <r>  0.0084  0.0493  0.1227  0.1127  0.0000  0.0000  0.0000  0.0000  0.0000 </r>
       </set>
       <set comment="band 4">
        <r>  0.0000  0.1618  0.1156  0.0186  0.0000  0.0000  0.0000  0.0000  0.0000 </r>
        <r>  0.0000  0.1618  0.1156  0.0186  0.0000  0.0000  0.0000  0.0000  0.0000 </r>
       </set>
       <set comment="band 5">
        <r>  0.0595  0.1177  0.0565  0.0114  0.0000  0.0000  0.0000  0.0000  0.0000 </r>
        <r>  0.0595  0.1177  0.0565  0.0114  0.0000  0.0000  0.0000  0.0000  0.0000 </r>
       </set>
       <set comment="band 6">
        <r>  0.0479  0.0070  0.0621  0.1033  0.0000  0.0000  0.0000  0.0000  0.0000 </r>
        <r>  0.0479  0.0070  0.0621  0.1033  0.0000  0.0000  0.0000  0.0000  0.0000 </r>
       </set>
       <set comment="band 7">
        <r>  0.0878  0.1209  0.1020  0.0254  0.0000  0.0000  0.0000  0.0000  0.0000 </r>
        <r>  0.0878  0.1209  0.1020  0.0254  0.0000  0.0000  0.0000  0.0000  0.0000 </r>
       </set>
       <set comment="band 8">
        <r>  0.0532  0.0571  0.1337  0.1106  0.0000  0.0000  0.0000  0.0000  0.0000 </r>
        <r>  0.0532  0.0571  0.1337  0.1106  0.0000  0.0000  0.0000  0.0000  0.0000 </r>
       </set>
      </set>
      <set comment="kpoint 120">
       <set comment="band 1">
        <r>  0.2495  0.0374  0.0166  0.0414  0.0000  0.0000  0.0000  0.0000  0.0000 </r>
        <r>  0.2495  0.0374  0.0166  0.0414  0.0000  0.0000  0.0000  0.0000  0.0000 </r>
       </set>
       <set comment="band 2">
        <r>  0.2248  0.0468  0.0109  0.0621  0.0000  0.0000  0.0000  0.0000  0.0000 </r>
        <r>  0.2248  0.0468  0.0109  0.0621  0.0000  0.0000  0.0000  0.0000  0.0000 </r>
       </set>
       <set comment="band 3">
        <r>  0.0009  0.1568  0.0024  0.1236  0.0000  0.0000  0.0000  0.0000  0.0000 </r>
        <r>  0.0009  0.1568  0.0024  0.1236  0.0000  0.0000  0.0000  0.0000  0.0000 </r>
       </set>
       <set comment="band 4">
        <r>  0.0033  0.0172  0.2439  0.0338  0.0000  0.0000  0.0000  0.0000  0.0000 </r>
        <r>  0.0033  0.0172  0.2439  0.0338  0.0000  0.0000  0.0000  0.0000  0.0000 </r>
       </set>
       <set comment="band 5">
        <r>  0.0381  0.0498  0.0889  0.0527  0.0000  0.0000  0.0000  0.0000  0.0000 </r>
        <r>  0.0381  0.0498  0.0889  0.0527  0.0000  0.0000  0.0000  0.0000  0.0000 </r>
       </set>
       <set comment="band 6">
        <r>  0.0004  0.0487  0.1550  0.0292  0.0000  0.0000  0.0000  0.0000  0.0000 </r>
        <r>  0.0004  0.0487  0.1550  0.0292  0.0000  0.0000  0.0000  0.0000  0.0000 </r>
       </set>
       <set comment="band 7">
        <r>  0.1114  0.0752  0.0734  0.0920  0.0000  0.0000  0.0000  0.0000  0.0000 </r>
        <r>  0.1114  0.0752  0.0734  0.0920  0.0000  0.0000  0.0000  0.0000  0.0000 </r>
       </set>
       <set comment="band 8">
        <r>  0.1021  0.1299  0.0042  0.0930  0.0000  0.0000  0.0000  0.0000  0.0000 </r>
        <r>  0.1021  0.1299  0.0042  0.0930  0.0000  0.0000  0.0000  0.0000  0.0000 </r>
       </set>
      </set>
     </set>
    </set>
   </array>
  </projected>
 </calculation>
 <structure name="finalpos" >
  <crystal>
   <varray name="basis" >
    <v>       2.18050236       0.00000000       1.25891346 </v>
    <v>       0.72683412       2.05579703       1.25891346 </v>
    <v>       0.00000000       0.00000000       2.51782692 </v>
   </varray>
   <i name="volume">     11.28658789 </i>
   <varray name="rec_basis" >
    <v>       0.45860991      -0.16214311       0.00000000 </v>
    <v>       0.00000000       0.48642934       0.00000000 </v>
    <v>      -0.22930496      -0.16214311       0.39716789 </v>
   </varray>
  </crystal>
  <varray name="positions" >
   <v>       0.87500000       0.87500000       0.87500000 </v>
   <v>       0.12500000       0.12500000       0.12500000 </v>
  </varray>
 </structure>
</modeling>
