    2    2    1    1
  0.5643294E+01  0.2517827E-09  0.2517827E-09  0.2517827E-09  0.5000000E-15
  1.000000000000000E-004
  CAR 
 r-GeO2 ENCUT convergence test           
      8    120      8
 
  0.0000000E+00  0.0000000E+00  0.0000000E+00  0.2962963E-03
    1      -12.159400   1.000000
    2        8.892109   1.000000
    3        8.892110   1.000000
    4        8.892111   1.000000
    5       14.996842   0.000000
    6       14.996845   0.000000
    7       14.996847   0.000000
    8       22.867840   0.000000
 
  0.6666667E-01 -0.3295382E-17  0.0000000E+00  0.2370370E-02
    1      -12.038226   1.000000
    2        8.124332   1.000000
    3        8.693682   1.000000
    4        8.693683   1.000000
    5       15.263201   0.000000
    6       15.263203   0.000000
    7       15.467510   0.000000
    8       22.978166   0.000000
 
  0.1333333E+00 -0.6590764E-17  0.0000000E+00  0.2370370E-02
    1      -11.675727   1.000000
    2        6.360120   1.000000
    3        8.209736   1.000000
    4        8.209737   1.000000
    5       15.918575   0.000000
    6       15.918577   0.000000
    7       16.367482   0.000000
    8       23.307439   0.000000
 
  0.2000000E+00 -0.2235735E-16  0.0000000E+00  0.2370370E-02
    1      -11.075541   1.000000
    2        4.226366   1.000000
    3        7.631955   1.000000
    4        7.631956   1.000000
    5       16.684041   0.000000
    6       16.684043   0.000000
    7       17.158815   0.000000
    8       23.829192   0.000000
 
  0.2666667E+00  0.1781357E-17  0.0000000E+00  0.2370370E-02
    1      -10.245618   1.000000
    2        2.010381   1.000000
    3        7.089978   1.000000
    4        7.089979   1.000000
    5       17.327173   0.000000
    6       17.327175   0.000000
    7       17.711423   0.000000
    8       24.461637   0.000000
 
  0.3333333E+00 -0.8131428E-17  0.0000000E+00  0.2370370E-02
    1       -9.203087   1.000000
    2       -0.142893   1.000000
    3        6.650508   1.000000
    4        6.650510   1.000000
    5       17.733125   0.000000
    6       17.733126   0.000000
    7       18.058895   0.000000
    8       25.073361   0.000000
 
  0.4000000E+00 -0.4471469E-16  0.0000000E+00  0.2370370E-02
    1       -7.996202   1.000000
    2       -2.118723   1.000000
    3        6.345783   1.000000
    4        6.345784   1.000000
    5       17.923839   0.000000
    6       17.923840   0.000000
    7       18.258928   0.000000
    8       25.525117   0.000000
 
  0.4666667E+00 -0.4454063E-16  0.0000000E+00  0.2370370E-02
    1       -6.849592   1.000000
    2       -3.657567   1.000000
    3        6.190599   1.000000
    4        6.190601   1.000000
    5       17.986219   0.000000
    6       17.986219   0.000000
    7       18.350357   0.000000
    8       25.754238   0.000000
 
  0.6666667E-01  0.6666667E-01  0.0000000E+00  0.1777778E-02
    1      -11.997840   1.000000
    2        8.322673   1.000000
    3        8.322674   1.000000
    4        8.499295   1.000000
    5       14.895619   0.000000
    6       15.714347   0.000000
    7       15.714348   0.000000
    8       22.979474   0.000000
 
  0.1333333E+00  0.6666667E-01  0.0000000E+00  0.7111111E-02
    1      -11.715835   1.000000
    2        6.948255   1.000000
    3        7.745768   1.000000
    4        8.298160   1.000000
    5       15.091274   0.000000
    6       16.487040   0.000000
    7       16.544398   0.000000
    8       23.128216   0.000000
 
  0.2000000E+00  0.6666667E-01  0.0000000E+00  0.7111111E-02
    1      -11.194823   1.000000
    2        4.957873   1.000000
    3        7.141101   1.000000
    4        7.851500   1.000000
    5       15.710874   0.000000
    6       17.321232   0.000000
    7       17.380991   0.000000
    8       23.413778   0.000000
 
  0.2666667E+00  0.6666667E-01  0.0000000E+00  0.7111111E-02
    1      -10.441184   1.000000
    2        2.788304   1.000000
    3        6.616002   1.000000
    4        7.281590   1.000000
    5       16.443397   0.000000
    6       17.998774   0.000000
    7       17.998803   0.000000
    8       23.830646   0.000000
 
  0.3333333E+00  0.6666667E-01  0.0000000E+00  0.7111111E-02
    1       -9.468105   1.000000
    2        0.625692   1.000000
    3        6.224827   1.000000
    4        6.721898   1.000000
    5       17.046723   0.000000
    6       18.396383   0.000000
    7       18.396500   0.000000
    8       24.386520   0.000000
 
  0.4000000E+00  0.6666667E-01  0.0000000E+00  0.7111111E-02
    1       -8.308483   1.000000
    2       -1.408904   1.000000
    3        5.992577   1.000000
    4        6.245722   1.000000
    5       17.444325   0.000000
    6       18.519067   0.000000
    7       18.629595   0.000000
    8       25.009206   0.000000
 
  0.4666667E+00  0.6666667E-01  0.0000000E+00  0.7111111E-02
    1       -7.088237   1.000000
    2       -3.142729   1.000000
    3        5.892561   1.000000
    4        5.927792   1.000000
    5       17.696359   0.000000
    6       18.457424   0.000000
    7       18.744927   0.000000
    8       25.506063   0.000000
 
 -0.4666667E+00  0.6666667E-01  0.0000000E+00  0.7111111E-02
    1       -6.545400   1.000000
    2       -3.815082   1.000000
    3        5.685262   1.000000
    4        6.029063   1.000000
    5       17.886163   0.000000
    6       18.300217   0.000000
    7       18.767345   0.000000
    8       25.683430   0.000000
 
 -0.4000000E+00  0.6666667E-01  0.0000000E+00  0.7111111E-02
    1       -7.482595   1.000000
    2       -2.617792   1.000000
    3        5.637635   1.000000
    4        6.287469   1.000000
    5       18.038688   0.000000
    6       18.077350   0.000000
    7       18.700952   0.000000
    8       25.482651   0.000000
 
 -0.3333333E+00  0.6666667E-01  0.0000000E+00  0.7111111E-02
    1       -8.712219   1.000000
    2       -0.749420   1.000000
    3        5.756700   1.000000
    4        6.686687   1.000000
    5       17.751803   0.000000
    6       18.102391   0.000000
    7       18.524073   0.000000
    8       24.981373   0.000000
 
 -0.2666667E+00  0.6666667E-01  0.0000000E+00  0.7111111E-02
    1       -9.815807   1.000000
    2        1.341848   1.000000
    3        6.042113   1.000000
    4        7.198873   1.000000
    5       17.257717   0.000000
    6       17.983755   0.000000
    7       18.176398   0.000000
    8       24.371714   0.000000
 
 -0.2000000E+00  0.6666667E-01  0.0000000E+00  0.7111111E-02
    1      -10.717805   1.000000
    2        3.521179   1.000000
    3        6.483344   1.000000
    4        7.774917   1.000000
    5       16.584657   0.000000
    6       17.542602   0.000000
    7       17.653293   0.000000
    8       23.829002   0.000000
 
 -0.1333333E+00  0.6666667E-01  0.0000000E+00  0.7111111E-02
    1      -11.394814   1.000000
    2        5.647965   1.000000
    3        7.056317   1.000000
    4        8.323651   1.000000
    5       15.857064   0.000000
    6       16.730121   0.000000
    7       17.009122   0.000000
    8       23.412581   0.000000
 
 -0.6666667E-01  0.6666667E-01  0.0000000E+00  0.3555556E-02
    1      -11.836604   1.000000
    2        7.391283   1.000000
    3        7.789320   1.000000
    4        8.688206   1.000000
    5       15.328892   0.000000
    6       15.879200   0.000000
    7       16.165138   0.000000
    8       23.125329   0.000000
 
  0.1333333E+00  0.1333333E+00  0.0000000E+00  0.1777778E-02
    1      -11.514705   1.000000
    2        7.116111   1.000000
    3        7.116112   1.000000
    4        7.417232   1.000000
    5       14.635296   0.000000
    6       17.357583   0.000000
    7       17.357583   0.000000
    8       22.889704   0.000000
 
  0.2000000E+00  0.1333333E+00  0.0000000E+00  0.7111111E-02
    1      -11.074237   1.000000
    2        5.567291   1.000000
    3        6.486106   1.000000
    4        7.151591   1.000000
    5       14.793236   0.000000
    6       18.272133   0.000000
    7       18.288218   0.000000
    8       22.634095   0.000000
 
  0.2666667E+00  0.1333333E+00  0.0000000E+00  0.7111111E-02
    1      -10.399579   1.000000
    2        3.573460   1.000000
    3        5.955197   1.000000
    4        6.681765   1.000000
    5       15.404049   0.000000
    6       18.992915   0.000000
    7       19.064906   0.000000
    8       22.503638   0.000000
 
  0.3333333E+00  0.1333333E+00  0.0000000E+00  0.7111111E-02
    1       -9.501300   1.000000
    2        1.486889   1.000000
    3        5.575679   1.000000
    4        6.074400   1.000000
    5       16.114361   0.000000
    6       19.468249   0.000000
    7       19.541629   0.000000
    8       22.724232   0.000000
 
  0.4000000E+00  0.1333333E+00  0.0000000E+00  0.7111111E-02
    1       -8.403354   1.000000
    2       -0.542855   1.000000
    3        5.372297   1.000000
    4        5.470077   1.000000
    5       16.668294   0.000000
    6       19.688400   0.000000
    7       19.750099   0.000000
    8       23.417921   0.000000
 
  0.4666667E+00  0.1333333E+00  0.0000000E+00  0.7111111E-02
    1       -7.182499   1.000000
    2       -2.370089   1.000000
    3        4.950733   1.000000
    4        5.353295   1.000000
    5       17.045886   0.000000
    6       19.579215   0.000000
    7       19.895210   0.000000
    8       24.408911   0.000000
 
 -0.4666667E+00  0.1333333E+00  0.0000000E+00  0.7111111E-02
    1       -6.257945   1.000000
    2       -3.539400   1.000000
    3        4.563761   1.000000
    4        5.515540   1.000000
    5       17.353724   0.000000
    6       19.312509   0.000000
    7       19.942558   0.000000
    8       25.227136   0.000000
 
 -0.4000000E+00  0.1333333E+00  0.0000000E+00  0.7111111E-02
    1       -6.797692   1.000000
    2       -2.869512   1.000000
    3        4.338177   1.000000
    4        5.846032   1.000000
    5       17.659701   0.000000
    6       18.941662   0.000000
    7       19.902926   0.000000
    8       25.327590   0.000000
 
 -0.3333333E+00  0.1333333E+00  0.0000000E+00  0.7111111E-02
    1       -8.006933   1.000000
    2       -1.161810   1.000000
    3        4.292482   1.000000
    4        6.320531   1.000000
    5       17.943798   0.000000
    6       18.456548   0.000000
    7       19.748617   0.000000
    8       24.730331   0.000000
 
 -0.2666667E+00  0.1333333E+00  0.0000000E+00  0.7111111E-02
    1       -9.158438   1.000000
    2        0.826360   1.000000
    3        4.439320   1.000000
    4        6.898601   1.000000
    5       17.819909   0.000000
    6       18.111877   0.000000
    7       19.381659   0.000000
    8       24.003389   0.000000
 
 -0.2000000E+00  0.1333333E+00  0.0000000E+00  0.7111111E-02
    1      -10.126009   1.000000
    2        2.892576   1.000000
    3        4.798977   1.000000
    4        7.511877   1.000000
    5       17.053099   0.000000
    6       18.047603   0.000000
    7       18.678336   0.000000
    8       23.574670   0.000000
 
 -0.1333333E+00  0.1333333E+00  0.0000000E+00  0.3555556E-02
    1      -10.876082   1.000000
    2        4.703096   1.000000
    3        5.552484   1.000000
    4        8.043915   1.000000
    5       16.309829   0.000000
    6       17.676620   0.000000
    7       17.705038   0.000000
    8       23.455764   0.000000
 
  0.2000000E+00  0.2000000E+00  0.0000000E+00  0.1777778E-02
    1      -10.714918   1.000000
    2        5.831011   1.000000
    3        5.831011   1.000000
    4        5.839527   1.000000
    5       14.316263   0.000000
    6       19.346328   0.000000
    7       19.346328   0.000000
    8       21.726018   0.000000
 
  0.2666667E+00  0.2000000E+00  0.0000000E+00  0.7111111E-02
    1      -10.120871   1.000000
    2        4.155285   1.000000
    3        5.277597   1.000000
    4        5.626831   1.000000
    5       14.489273   0.000000
    6       20.248523   0.000000
    7       20.278625   0.000000
    8       21.005789   0.000000
 
  0.3333333E+00  0.2000000E+00  0.0000000E+00  0.7111111E-02
    1       -9.300811   1.000000
    2        2.283947   1.000000
    3        4.881466   1.000000
    4        5.064153   1.000000
    5       15.118689   0.000000
    6       20.645137   0.000000
    7       20.913294   0.000000
    8       20.973549   0.000000
 
  0.4000000E+00  0.2000000E+00  0.0000000E+00  0.7111111E-02
    1       -8.273308   1.000000
    2        0.367830   1.000000
    3        4.370836   1.000000
    4        4.670314   1.000000
    5       15.787980   0.000000
    6       21.015048   0.000000
    7       21.173459   0.000000
    8       21.414771   0.000000
 
  0.4666667E+00  0.2000000E+00  0.0000000E+00  0.7111111E-02
    1       -7.089209   1.000000
    2       -1.449966   1.000000
    3        3.706410   1.000000
    4        4.654699   1.000000
    5       16.267188   0.000000
    6       21.099510   0.000000
    7       21.396113   0.000000
    8       22.375928   0.000000
 
 -0.4666667E+00  0.2000000E+00  0.0000000E+00  0.7111111E-02
    1       -5.977938   1.000000
    2       -2.882381   1.000000
    3        3.158706   1.000000
    4        4.832752   1.000000
    5       16.637136   0.000000
    6       20.783021   0.000000
    7       21.501861   0.000000
    8       23.837882   0.000000
 
 -0.4000000E+00  0.2000000E+00  0.0000000E+00  0.7111111E-02
    1       -5.994389   1.000000
    2       -2.846930   1.000000
    3        2.776792   1.000000
    4        5.191257   1.000000
    5       17.022426   0.000000
    6       20.292133   0.000000
    7       21.498505   0.000000
    8       24.886155   0.000000
 
 -0.3333333E+00  0.2000000E+00  0.0000000E+00  0.7111111E-02
    1       -7.108289   1.000000
    2       -1.375952   1.000000
    3        2.593629   1.000000
    4        5.703432   1.000000
    5       17.449564   0.000000
    6       19.638674   0.000000
    7       21.368201   0.000000
    8       24.553209   0.000000
 
 -0.2666667E+00  0.2000000E+00  0.0000000E+00  0.7111111E-02
    1       -8.286687   1.000000
    2        0.446269   1.000000
    3        2.654551   1.000000
    4        6.322441   1.000000
    5       17.853495   0.000000
    6       18.815056   0.000000
    7       20.924502   0.000000
    8       23.715938   0.000000
 
 -0.2000000E+00  0.2000000E+00  0.0000000E+00  0.3555556E-02
    1       -9.309394   1.000000
    2        2.094718   1.000000
    3        3.217055   1.000000
    4        6.968738   1.000000
    5       17.888269   0.000000
    6       18.100171   0.000000
    7       19.935029   0.000000
    8       23.403034   0.000000
 
  0.2666667E+00  0.2666667E+00  0.0000000E+00  0.1777778E-02
    1       -9.608013   1.000000
    2        3.932189   1.000000
    3        4.693271   1.000000
    4        4.693271   1.000000
    5       14.049080   0.000000
    6       19.758640   0.000000
    7       21.413297   0.000000
    8       21.413297   0.000000
 
  0.3333333E+00  0.2666667E+00  0.0000000E+00  0.7111111E-02
    1       -8.868262   1.000000
    2        2.578493   1.000000
    3        4.174210   1.000000
    4        4.264085   1.000000
    5       14.282080   0.000000
    6       19.013622   0.000000
    7       22.267553   0.000000
    8       22.271637   0.000000
 
  0.4000000E+00  0.2666667E+00  0.0000000E+00  0.7111111E-02
    1       -7.916683   1.000000
    2        0.998496   1.000000
    3        3.398665   1.000000
    4        4.022433   1.000000
    5       14.935836   0.000000
    6       18.976639   0.000000
    7       22.719528   0.000000
    8       22.810405   0.000000
 
  0.4666667E+00  0.2666667E+00  0.0000000E+00  0.7111111E-02
    1       -6.789300   1.000000
    2       -0.618984   1.000000
    3        2.549789   1.000000
    4        3.982188   1.000000
    5       15.522914   0.000000
    6       19.858195   0.000000
    7       22.754521   0.000000
    8       23.108211   0.000000
 
 -0.4666667E+00  0.2666667E+00  0.0000000E+00  0.7111111E-02
    1       -5.619511   1.000000
    2       -2.073680   1.000000
    3        1.805811   1.000000
    4        4.144026   1.000000
    5       15.932846   0.000000
    6       21.458882   0.000000
    7       22.440444   0.000000
    8       23.286489   0.000000
 
 -0.4000000E+00  0.2666667E+00  0.0000000E+00  0.7111111E-02
    1       -5.149673   1.000000
    2       -2.576118   1.000000
    3        1.255557   1.000000
    4        4.496627   1.000000
    5       16.339257   0.000000
    6       21.848341   0.000000
    7       22.881189   0.000000
    8       23.777166   0.000000
 
 -0.3333333E+00  0.2666667E+00  0.0000000E+00  0.7111111E-02
    1       -6.057432   1.000000
    2       -1.458603   1.000000
    3        0.970226   1.000000
    4        5.014267   1.000000
    5       16.826413   0.000000
    6       21.009320   0.000000
    7       23.045525   0.000000
    8       24.361708   0.000000
 
 -0.2666667E+00  0.2666667E+00  0.0000000E+00  0.3555556E-02
    1       -7.227639   1.000000
    2       -0.114434   1.000000
    3        1.237430   1.000000
    4        5.649957   1.000000
    5       17.367802   0.000000
    6       19.957128   0.000000
    7       22.448306   0.000000
    8       23.720652   0.000000
 
  0.3333333E+00  0.3333333E+00  0.0000000E+00  0.1777778E-02
    1       -8.209520   1.000000
    2        1.821577   1.000000
    3        3.794171   1.000000
    4        3.794171   1.000000
    5       13.927672   0.000000
    6       17.830173   0.000000
    7       23.381014   0.000000
    8       23.381015   0.000000
 
  0.4000000E+00  0.3333333E+00  0.0000000E+00  0.7111111E-02
    1       -7.336668   1.000000
    2        0.646321   1.000000
    3        3.182758   1.000000
    4        3.509782   1.000000
    5       14.253333   0.000000
    6       17.289588   0.000000
    7       24.080422   0.000000
    8       24.119658   0.000000
 
  0.4666667E+00  0.3333333E+00  0.0000000E+00  0.7111111E-02
    1       -6.277186   1.000000
    2       -0.568178   1.000000
    3        2.183496   1.000000
    4        3.428754   1.000000
    5       14.899335   0.000000
    6       17.635827   0.000000
    7       24.285365   0.000000
    8       24.521719   0.000000
 
 -0.4666667E+00  0.3333333E+00  0.0000000E+00  0.7111111E-02
    1       -5.115246   1.000000
    2       -1.725242   1.000000
    3        1.116731   1.000000
    4        3.554949   1.000000
    5       15.354742   0.000000
    6       19.050729   0.000000
    7       24.017480   0.000000
    8       24.692247   0.000000
 
 -0.4000000E+00  0.3333333E+00  0.0000000E+00  0.7111111E-02
    1       -4.329683   1.000000
    2       -2.412920   1.000000
    3        0.285497   1.000000
    4        3.879893   1.000000
    5       15.743930   0.000000
    6       21.081135   0.000000
    7       23.338622   0.000000
    8       24.717260   0.000000
 
 -0.3333333E+00  0.3333333E+00  0.0000000E+00  0.3555556E-02
    1       -4.959504   1.000000
    2       -1.817750   1.000000
    3        0.033749   1.000000
    4        4.380816   1.000000
    5       16.231420   0.000000
    6       22.304241   0.000000
    7       23.055382   0.000000
    8       24.517427   0.000000
 
  0.4000000E+00  0.4000000E+00  0.0000000E+00  0.1777778E-02
    1       -6.542959   1.000000
    2       -0.379668   1.000000
    3        3.177125   1.000000
    4        3.177126   1.000000
    5       14.028183   0.000000
    6       16.273834   0.000000
    7       25.037667   0.000000
    8       25.037668   0.000000
 
  0.4666667E+00  0.4000000E+00  0.0000000E+00  0.7111111E-02
    1       -5.557074   1.000000
    2       -1.470496   1.000000
    3        2.633720   1.000000
    4        3.046853   1.000000
    5       14.461739   0.000000
    6       15.990202   0.000000
    7       25.443331   0.000000
    8       25.527068   0.000000
 
 -0.4666667E+00  0.4000000E+00  0.0000000E+00  0.7111111E-02
    1       -4.435882   1.000000
    2       -2.459621   1.000000
    3        1.632841   1.000000
    4        3.126322   1.000000
    5       14.968241   0.000000
    6       16.863387   0.000000
    7       25.261475   0.000000
    8       25.651945   0.000000
 
 -0.4000000E+00  0.4000000E+00  0.0000000E+00  0.3555556E-02
    1       -3.660276   1.000000
    2       -2.970192   1.000000
    3        0.606790   1.000000
    4        3.410338   1.000000
    5       15.297978   0.000000
    6       18.777826   0.000000
    7       24.530051   0.000000
    8       25.432178   0.000000
 
  0.4666667E+00  0.4666667E+00  0.0000000E+00  0.1777778E-02
    1       -4.644419   1.000000
    2       -2.565901   1.000000
    3        2.863894   1.000000
    4        2.863894   1.000000
    5       14.414249   0.000000
    6       15.144945   0.000000
    7       26.036580   0.000000
    8       26.036581   0.000000
 
 -0.4666667E+00  0.4666667E+00  0.0000000E+00  0.3555556E-02
    1       -3.603434   1.000000
    2       -3.550864   1.000000
    3        2.456104   1.000000
    4        2.890962   1.000000
    5       14.796848   0.000000
    6       15.287710   0.000000
    7       25.970835   0.000000
    8       26.077969   0.000000
 
  0.2000000E+00  0.1333333E+00  0.6666667E-01  0.7111111E-02
    1      -11.354506   1.000000
    2        6.054429   1.000000
    3        6.633176   1.000000
    4        8.042688   1.000000
    5       15.239898   0.000000
    6       17.347224   0.000000
    7       17.383563   0.000000
    8       23.132615   0.000000
 
  0.2666667E+00  0.1333333E+00  0.6666667E-01  0.1422222E-01
    1      -10.756611   1.000000
    2        4.253593   1.000000
    3        5.883196   1.000000
    4        7.615440   1.000000
    5       15.836119   0.000000
    6       18.057703   0.000000
    7       18.266391   0.000000
    8       23.174911   0.000000
 
  0.3333333E+00  0.1333333E+00  0.6666667E-01  0.1422222E-01
    1       -9.930348   1.000000
    2        2.155649   1.000000
    3        5.405654   1.000000
    4        7.042265   1.000000
    5       16.581077   0.000000
    6       18.449452   0.000000
    7       19.008528   0.000000
    8       23.405747   0.000000
 
  0.4000000E+00  0.1333333E+00  0.6666667E-01  0.1422222E-01
    1       -8.893325   1.000000
    2        0.067591   1.000000
    3        5.100175   1.000000
    4        6.465321   1.000000
    5       17.211149   0.000000
    6       18.578251   0.000000
    7       19.468149   0.000000
    8       23.973756   0.000000
 
  0.4666667E+00  0.1333333E+00  0.6666667E-01  0.1422222E-01
    1       -7.694671   1.000000
    2       -1.867991   1.000000
    3        4.954158   1.000000
    4        5.984327   1.000000
    5       17.629812   0.000000
    6       18.523385   0.000000
    7       19.700410   0.000000
    8       24.759870   0.000000
 
 -0.4666667E+00  0.1333333E+00  0.6666667E-01  0.1422222E-01
    1       -6.559527   1.000000
    2       -3.381174   1.000000
    3        4.925116   1.000000
    4        5.689637   1.000000
    5       17.858180   0.000000
    6       18.412244   0.000000
    7       19.795462   0.000000
    8       25.364858   0.000000
 
  0.2666667E+00  0.2000000E+00  0.6666667E-01  0.7111111E-02
    1      -10.556969   1.000000
    2        4.644631   1.000000
    3        5.383426   1.000000
    4        6.757359   1.000000
    5       14.949129   0.000000
    6       19.049573   0.000000
    7       19.332851   0.000000
    8       22.091171   0.000000
 
  0.3333333E+00  0.2000000E+00  0.6666667E-01  0.1422222E-01
    1       -9.809390   1.000000
    2        2.921649   1.000000
    3        4.696727   1.000000
    4        6.276610   1.000000
    5       15.582503   0.000000
    6       19.524231   0.000000
    7       20.257587   0.000000
    8       21.797216   0.000000
 
  0.4000000E+00  0.2000000E+00  0.6666667E-01  0.1422222E-01
    1       -8.845654   1.000000
    2        0.951165   1.000000
    3        4.310660   1.000000
    4        5.695433   1.000000
    5       16.322717   0.000000
    6       19.696314   0.000000
    7       20.850036   0.000000
    8       22.095086   0.000000
 
  0.4666667E+00  0.2000000E+00  0.6666667E-01  0.1422222E-01
    1       -7.700073   1.000000
    2       -0.969798   1.000000
    3        4.055331   1.000000
    4        5.201853   1.000000
    5       16.886578   0.000000
    6       19.635746   0.000000
    7       21.164304   0.000000
    8       23.005245   0.000000
 
 -0.4666667E+00  0.2000000E+00  0.6666667E-01  0.1422222E-01
    1       -6.500626   1.000000
    2       -2.631258   1.000000
    3        3.825196   1.000000
    4        4.976482   1.000000
    5       17.269714   0.000000
    6       19.434048   0.000000
    7       21.306971   0.000000
    8       24.192584   0.000000
 
 -0.4000000E+00  0.2000000E+00  0.6666667E-01  0.1422222E-01
    1       -5.975402   1.000000
    2       -3.269315   1.000000
    3        3.591190   1.000000
    4        5.087848   1.000000
    5       17.596286   0.000000
    6       19.137043   0.000000
    7       21.305806   0.000000
    8       24.975261   0.000000
 
 -0.3333333E+00  0.2000000E+00  0.6666667E-01  0.1422222E-01
    1       -6.893675   1.000000
    2       -2.106472   1.000000
    3        3.443778   1.000000
    4        5.455777   1.000000
    5       17.920161   0.000000
    6       18.747162   0.000000
    7       21.182454   0.000000
    8       24.599364   0.000000
 
 -0.2666667E+00  0.2000000E+00  0.6666667E-01  0.1422222E-01
    1       -8.103361   1.000000
    2       -0.313368   1.000000
    3        3.457740   1.000000
    4        5.991526   1.000000
    5       17.984737   0.000000
    6       18.429268   0.000000
    7       20.905607   0.000000
    8       23.643664   0.000000
 
 -0.2000000E+00  0.2000000E+00  0.6666667E-01  0.1422222E-01
    1       -9.192951   1.000000
    2        1.632300   1.000000
    3        3.688509   1.000000
    4        6.611963   1.000000
    5       17.291213   0.000000
    6       18.541762   0.000000
    7       20.329634   0.000000
    8       22.971148   0.000000
 
 -0.1333333E+00  0.2000000E+00  0.6666667E-01  0.7111111E-02
    1      -10.085621   1.000000
    2        3.355813   1.000000
    3        4.360541   1.000000
    4        7.204705   1.000000
    5       16.454326   0.000000
    6       18.465098   0.000000
    7       19.368611   0.000000
    8       22.904064   0.000000
 
  0.3333333E+00  0.2666667E+00  0.6666667E-01  0.7111111E-02
    1       -9.453924   1.000000
    2        3.194303   1.000000
    3        4.272800   1.000000
    4        5.230428   1.000000
    5       14.694467   0.000000
    6       20.209323   0.000000
    7       20.897815   0.000000
    8       21.420238   0.000000
 
  0.4000000E+00  0.2666667E+00  0.6666667E-01  0.1422222E-01
    1       -8.567684   1.000000
    2        1.652285   1.000000
    3        3.611116   1.000000
    4        4.728837   1.000000
    5       15.379510   0.000000
    6       19.971506   0.000000
    7       21.190654   0.000000
    8       22.311614   0.000000
 
  0.4666667E+00  0.2666667E+00  0.6666667E-01  0.1422222E-01
    1       -7.487921   1.000000
    2       -0.087696   1.000000
    3        3.122708   1.000000
    4        4.294289   1.000000
    5       16.081724   0.000000
    6       20.482191   0.000000
    7       21.235360   0.000000
    8       22.864522   0.000000
 
 -0.4666667E+00  0.2666667E+00  0.6666667E-01  0.1422222E-01
    1       -6.293888   1.000000
    2       -1.738230   1.000000
    3        2.614706   1.000000
    4        4.169303   1.000000
    5       16.560232   0.000000
    6       20.956867   0.000000
    7       21.806393   0.000000
    8       23.170472   0.000000
 
 -0.4000000E+00  0.2666667E+00  0.6666667E-01  0.1422222E-01
    1       -5.407647   1.000000
    2       -2.800316   1.000000
    3        2.152286   1.000000
    4        4.349430   1.000000
    5       16.945856   0.000000
    6       20.641619   0.000000
    7       22.689894   0.000000
    8       23.831022   0.000000
 
 -0.3333333E+00  0.2666667E+00  0.6666667E-01  0.1422222E-01
    1       -5.946106   1.000000
    2       -2.132760   1.000000
    3        1.839306   1.000000
    4        4.757743   1.000000
    5       17.370127   0.000000
    6       20.117441   0.000000
    7       22.670664   0.000000
    8       24.404003   0.000000
 
 -0.2666667E+00  0.2666667E+00  0.6666667E-01  0.1422222E-01
    1       -7.120813   1.000000
    2       -0.560047   1.000000
    3        1.760786   1.000000
    4        5.329164   1.000000
    5       17.846261   0.000000
    6       19.338442   0.000000
    7       22.426308   0.000000
    8       23.551113   0.000000
 
 -0.2000000E+00  0.2666667E+00  0.6666667E-01  0.7111111E-02
    1       -8.244568   1.000000
    2        0.935827   1.000000
    3        2.200654   1.000000
    4        5.986404   1.000000
    5       18.289703   0.000000
    6       18.322325   0.000000
    7       21.673654   0.000000
    8       22.859203   0.000000
 
  0.4000000E+00  0.3333333E+00  0.6666667E-01  0.7111111E-02
    1       -8.062173   1.000000
    2        1.533742   1.000000
    3        3.398953   1.000000
    4        3.898790   1.000000
    5       14.576155   0.000000
    6       18.346818   0.000000
    7       22.742693   0.000000
    8       23.401990   0.000000
 
  0.4666667E+00  0.3333333E+00  0.6666667E-01  0.1422222E-01
    1       -7.055710   1.000000
    2        0.258477   1.000000
    3        2.603878   1.000000
    4        3.523968   1.000000
    5       15.313873   0.000000
    6       18.401517   0.000000
    7       22.882221   0.000000
    8       24.124388   0.000000
 
 -0.4666667E+00  0.3333333E+00  0.6666667E-01  0.1422222E-01
    1       -5.902399   1.000000
    2       -1.096373   1.000000
    3        1.720045   1.000000
    4        3.452923   1.000000
    5       15.918146   0.000000
    6       19.451758   0.000000
    7       22.761561   0.000000
    8       24.396358   0.000000
 