    2    2    1    1
  0.5643294E+01  0.2517827E-09  0.2517827E-09  0.2517827E-09  0.5000000E-15
  1.000000000000000E-004
  CAR 
 Diamont Test Results                    
      8      3      8
 
  0.0000000E+00  0.0000000E+00  0.0000000E+00  0.1250000E+00
    1      -11.964037   1.000000
    2        9.301510   1.000000
    3        9.301539   1.000000
    4        9.301541   1.000000
    5       15.360948   0.000000
    6       15.360966   0.000000
    7       15.360970   0.000000
    8       23.144480   0.000000
 
  0.5000000E+00  0.2114441E-16  0.0000000E+00  0.5000000E+00
    1       -6.382456   1.000000
    2       -3.724292   1.000000
    3        6.504870   1.000000
    4        6.504892   1.000000
    5       18.321148   0.000000
    6       18.321172   0.000000
    7       18.638015   0.000000
    8       26.509494   0.000000
 
  0.5000000E+00  0.5000000E+00  0.0000000E+00  0.3750000E+00
    1       -3.373992   1.000000
    2       -3.373992   1.000000
    3        3.142238   1.000000
    4        3.142251   1.000000
    5       14.957277   0.000000
    6       14.957288   0.000000
    7       27.061291   0.000000
    8       27.061318   0.000000
