<?xml version="1.0" encoding="ISO-8859-1"?>
<modeling>
 <generator>
  <i name="program" type="string">vasp </i>
  <i name="version" type="string">5.4.4.18Apr17-6-g9f103f2a35  </i>
  <i name="subversion" type="string">(build Jan 25 2021 16:16:55) complex            parallel </i>
  <i name="platform" type="string">LinuxIFC </i>
  <i name="date" type="string">2026 04 30 </i>
  <i name="time" type="string">12:30:09 </i>
 </generator>
 <incar>
  <i type="string" name="SYSTEM"> r-GeO2 ENCUT convergence test</i>
  <i type="int" name="ISTART">     0</i>
  <i type="string" name="PREC">accurate</i>
  <i type="string" name="ALGO"> Normal</i>
  <i type="int" name="ICHARG">     2</i>
  <i type="int" name="IBRION">    -1</i>
  <i name="EDIFF">      0.00010000</i>
  <i type="int" name="NSW">     0</i>
  <i name="ENCUT">    500.00000000</i>
  <i type="logical" name="LREAL"> F  </i>
  <i type="int" name="ISMEAR">     0</i>
  <i name="SIGMA">      0.05000000</i>
  <i type="logical" name="LWAVE"> F  </i>
  <i type="logical" name="LCHARG"> F  </i>
  <i type="int" name="LORBIT">    11</i>
  <i type="logical" name="LASPH"> T  </i>
  <v type="int" name="KPOINT_BSE">    -1     0     0     0</v>
  <i type="logical" name="LASPH"> T  </i>
 </incar>
 <structure name="primitive_cell" >
  <crystal>
   <varray name="basis" >
    <v>       2.18050236       0.00000000       1.25891346 </v>
    <v>       0.72683412       2.05579703       1.25891346 </v>
    <v>       0.00000000       0.00000000       2.51782692 </v>
   </varray>
   <i name="volume">     11.28658789 </i>
   <varray name="rec_basis" >
    <v>       0.45860991      -0.16214311       0.00000000 </v>
    <v>       0.00000000       0.48642934       0.00000000 </v>
    <v>      -0.22930496      -0.16214311       0.39716789 </v>
   </varray>
  </crystal>
  <varray name="positions" >
   <v>      -0.12500000      -0.12500000      -0.12500000 </v>
   <v>       0.12500000       0.12500000       0.12500000 </v>
  </varray>
 </structure>
 <varray name="primitive_index" >
  <v type="int" >        1 </v>
  <v type="int" >        2 </v>
 </varray>
 <kpoints>
  <generation param="Gamma">
   <v type="int" name="divisions">      15       15       15 </v>
   <v name="usershift">      0.00000000       0.00000000       0.00000000 </v>
   <v name="genvec1">      0.06666667      -0.00000000       0.00000000 </v>
   <v name="genvec2">      0.00000000       0.06666667       0.00000000 </v>
   <v name="genvec3">      0.00000000       0.00000000       0.06666667 </v>
   <v name="shift">      0.00000000       0.00000000       0.00000000 </v>
  </generation>
  <varray name="kpointlist" >
   <v>       0.00000000       0.00000000       0.00000000 </v>
   <v>       0.06666667      -0.00000000       0.00000000 </v>
   <v>       0.13333333      -0.00000000       0.00000000 </v>
   <v>       0.20000000      -0.00000000       0.00000000 </v>
   <v>       0.26666667       0.00000000       0.00000000 </v>
   <v>       0.33333333      -0.00000000       0.00000000 </v>
   <v>       0.40000000      -0.00000000       0.00000000 </v>
   <v>       0.46666667      -0.00000000       0.00000000 </v>
   <v>       0.06666667       0.06666667       0.00000000 </v>
   <v>       0.13333333       0.06666667       0.00000000 </v>
   <v>       0.20000000       0.06666667       0.00000000 </v>
   <v>       0.26666667       0.06666667       0.00000000 </v>
   <v>       0.33333333       0.06666667       0.00000000 </v>
   <v>       0.40000000       0.06666667       0.00000000 </v>
   <v>       0.46666667       0.06666667       0.00000000 </v>
   <v>      -0.46666667       0.06666667       0.00000000 </v>
   <v>      -0.40000000       0.06666667       0.00000000 </v>
   <v>      -0.33333333       0.06666667       0.00000000 </v>
   <v>      -0.26666667       0.06666667       0.00000000 </v>
   <v>      -0.20000000       0.06666667       0.00000000 </v>
   <v>      -0.13333333       0.06666667       0.00000000 </v>
   <v>      -0.06666667       0.06666667       0.00000000 </v>
   <v>       0.13333333       0.13333333       0.00000000 </v>
   <v>       0.20000000       0.13333333       0.00000000 </v>
   <v>       0.26666667       0.13333333       0.00000000 </v>
   <v>       0.33333333       0.13333333       0.00000000 </v>
   <v>       0.40000000       0.13333333       0.00000000 </v>
   <v>       0.46666667       0.13333333       0.00000000 </v>
   <v>      -0.46666667       0.13333333       0.00000000 </v>
   <v>      -0.40000000       0.13333333       0.00000000 </v>
   <v>      -0.33333333       0.13333333       0.00000000 </v>
   <v>      -0.26666667       0.13333333       0.00000000 </v>
   <v>      -0.20000000       0.13333333       0.00000000 </v>
   <v>      -0.13333333       0.13333333       0.00000000 </v>
   <v>       0.20000000       0.20000000       0.00000000 </v>
   <v>       0.26666667       0.20000000       0.00000000 </v>
   <v>       0.33333333       0.20000000       0.00000000 </v>
   <v>       0.40000000       0.20000000       0.00000000 </v>
   <v>       0.46666667       0.20000000       0.00000000 </v>
   <v>      -0.46666667       0.20000000       0.00000000 </v>
   <v>      -0.40000000       0.20000000       0.00000000 </v>
   <v>      -0.33333333       0.20000000       0.00000000 </v>
   <v>      -0.26666667       0.20000000       0.00000000 </v>
   <v>      -0.20000000       0.20000000       0.00000000 </v>
   <v>       0.26666667       0.26666667       0.00000000 </v>
   <v>       0.33333333       0.26666667       0.00000000 </v>
   <v>       0.40000000       0.26666667       0.00000000 </v>
   <v>       0.46666667       0.26666667       0.00000000 </v>
   <v>      -0.46666667       0.26666667       0.00000000 </v>
   <v>      -0.40000000       0.26666667       0.00000000 </v>
   <v>      -0.33333333       0.26666667       0.00000000 </v>
   <v>      -0.26666667       0.26666667       0.00000000 </v>
   <v>       0.33333333       0.33333333       0.00000000 </v>
   <v>       0.40000000       0.33333333       0.00000000 </v>
   <v>       0.46666667       0.33333333       0.00000000 </v>
   <v>      -0.46666667       0.33333333       0.00000000 </v>
   <v>      -0.40000000       0.33333333       0.00000000 </v>
   <v>      -0.33333333       0.33333333       0.00000000 </v>
   <v>       0.40000000       0.40000000       0.00000000 </v>
   <v>       0.46666667       0.40000000       0.00000000 </v>
   <v>      -0.46666667       0.40000000       0.00000000 </v>
   <v>      -0.40000000       0.40000000       0.00000000 </v>
   <v>       0.46666667       0.46666667       0.00000000 </v>
   <v>      -0.46666667       0.46666667       0.00000000 </v>
   <v>       0.20000000       0.13333333       0.06666667 </v>
   <v>       0.26666667       0.13333333       0.06666667 </v>
   <v>       0.33333333       0.13333333       0.06666667 </v>
   <v>       0.40000000       0.13333333       0.06666667 </v>
   <v>       0.46666667       0.13333333       0.06666667 </v>
   <v>      -0.46666667       0.13333333       0.06666667 </v>
   <v>       0.26666667       0.20000000       0.06666667 </v>
   <v>       0.33333333       0.20000000       0.06666667 </v>
   <v>       0.40000000       0.20000000       0.06666667 </v>
   <v>       0.46666667       0.20000000       0.06666667 </v>
   <v>      -0.46666667       0.20000000       0.06666667 </v>
   <v>      -0.40000000       0.20000000       0.06666667 </v>
   <v>      -0.33333333       0.20000000       0.06666667 </v>
   <v>      -0.26666667       0.20000000       0.06666667 </v>
   <v>      -0.20000000       0.20000000       0.06666667 </v>
   <v>      -0.13333333       0.20000000       0.06666667 </v>
   <v>       0.33333333       0.26666667       0.06666667 </v>
   <v>       0.40000000       0.26666667       0.06666667 </v>
   <v>       0.46666667       0.26666667       0.06666667 </v>
   <v>      -0.46666667       0.26666667       0.06666667 </v>
   <v>      -0.40000000       0.26666667       0.06666667 </v>
   <v>      -0.33333333       0.26666667       0.06666667 </v>
   <v>      -0.26666667       0.26666667       0.06666667 </v>
   <v>      -0.20000000       0.26666667       0.06666667 </v>
   <v>       0.40000000       0.33333333       0.06666667 </v>
   <v>       0.46666667       0.33333333       0.06666667 </v>
   <v>      -0.46666667       0.33333333       0.06666667 </v>
   <v>      -0.40000000       0.33333333       0.06666667 </v>
   <v>      -0.33333333       0.33333333       0.06666667 </v>
   <v>      -0.26666667       0.33333333       0.06666667 </v>
   <v>       0.46666667       0.40000000       0.06666667 </v>
   <v>      -0.46666667       0.40000000       0.06666667 </v>
   <v>      -0.40000000       0.40000000       0.06666667 </v>
   <v>      -0.33333333       0.40000000       0.06666667 </v>
   <v>      -0.46666667       0.46666667       0.06666667 </v>
   <v>      -0.40000000       0.46666667       0.06666667 </v>
   <v>       0.40000000       0.26666667       0.13333333 </v>
   <v>       0.46666667       0.26666667       0.13333333 </v>
   <v>      -0.46666667       0.26666667       0.13333333 </v>
   <v>      -0.40000000       0.26666667       0.13333333 </v>
   <v>       0.46666667       0.33333333       0.13333333 </v>
   <v>      -0.46666667       0.33333333       0.13333333 </v>
   <v>      -0.40000000       0.33333333       0.13333333 </v>
   <v>      -0.33333333       0.33333333       0.13333333 </v>
   <v>      -0.26666667       0.33333333       0.13333333 </v>
   <v>      -0.20000000       0.33333333       0.13333333 </v>
   <v>      -0.46666667       0.40000000       0.13333333 </v>
   <v>      -0.40000000       0.40000000       0.13333333 </v>
   <v>      -0.33333333       0.40000000       0.13333333 </v>
   <v>      -0.26666667       0.40000000       0.13333333 </v>
   <v>      -0.40000000       0.46666667       0.13333333 </v>
   <v>      -0.33333333       0.46666667       0.13333333 </v>
   <v>      -0.40000000       0.40000000       0.20000000 </v>
   <v>      -0.33333333       0.40000000       0.20000000 </v>
   <v>      -0.33333333       0.46666667       0.20000000 </v>
   <v>      -0.26666667       0.46666667       0.20000000 </v>
  </varray>
  <varray name="weights" >
   <v>       0.00029630 </v>
   <v>       0.00237037 </v>
   <v>       0.00237037 </v>
   <v>       0.00237037 </v>
   <v>       0.00237037 </v>
   <v>       0.00237037 </v>
   <v>       0.00237037 </v>
   <v>       0.00237037 </v>
   <v>       0.00177778 </v>
   <v>       0.00711111 </v>
   <v>       0.00711111 </v>
   <v>       0.00711111 </v>
   <v>       0.00711111 </v>
   <v>       0.00711111 </v>
   <v>       0.00711111 </v>
   <v>       0.00711111 </v>
   <v>       0.00711111 </v>
   <v>       0.00711111 </v>
   <v>       0.00711111 </v>
   <v>       0.00711111 </v>
   <v>       0.00711111 </v>
   <v>       0.00355556 </v>
   <v>       0.00177778 </v>
   <v>       0.00711111 </v>
   <v>       0.00711111 </v>
   <v>       0.00711111 </v>
   <v>       0.00711111 </v>
   <v>       0.00711111 </v>
   <v>       0.00711111 </v>
   <v>       0.00711111 </v>
   <v>       0.00711111 </v>
   <v>       0.00711111 </v>
   <v>       0.00711111 </v>
   <v>       0.00355556 </v>
   <v>       0.00177778 </v>
   <v>       0.00711111 </v>
   <v>       0.00711111 </v>
   <v>       0.00711111 </v>
   <v>       0.00711111 </v>
   <v>       0.00711111 </v>
   <v>       0.00711111 </v>
   <v>       0.00711111 </v>
   <v>       0.00711111 </v>
   <v>       0.00355556 </v>
   <v>       0.00177778 </v>
   <v>       0.00711111 </v>
   <v>       0.00711111 </v>
   <v>       0.00711111 </v>
   <v>       0.00711111 </v>
   <v>       0.00711111 </v>
   <v>       0.00711111 </v>
   <v>       0.00355556 </v>
   <v>       0.00177778 </v>
   <v>       0.00711111 </v>
   <v>       0.00711111 </v>
   <v>       0.00711111 </v>
   <v>       0.00711111 </v>
   <v>       0.00355556 </v>
   <v>       0.00177778 </v>
   <v>       0.00711111 </v>
   <v>       0.00711111 </v>
   <v>       0.00355556 </v>
   <v>       0.00177778 </v>
   <v>       0.00355556 </v>
   <v>       0.00711111 </v>
   <v>       0.01422222 </v>
   <v>       0.01422222 </v>
   <v>       0.01422222 </v>
   <v>       0.01422222 </v>
   <v>       0.01422222 </v>
   <v>       0.00711111 </v>
   <v>       0.01422222 </v>
   <v>       0.01422222 </v>
   <v>       0.01422222 </v>
   <v>       0.01422222 </v>
   <v>       0.01422222 </v>
   <v>       0.01422222 </v>
   <v>       0.01422222 </v>
   <v>       0.01422222 </v>
   <v>       0.00711111 </v>
   <v>       0.00711111 </v>
   <v>       0.01422222 </v>
   <v>       0.01422222 </v>
   <v>       0.01422222 </v>
   <v>       0.01422222 </v>
   <v>       0.01422222 </v>
   <v>       0.01422222 </v>
   <v>       0.00711111 </v>
   <v>       0.00711111 </v>
   <v>       0.01422222 </v>
   <v>       0.01422222 </v>
   <v>       0.01422222 </v>
   <v>       0.01422222 </v>
   <v>       0.00711111 </v>
   <v>       0.00711111 </v>
   <v>       0.01422222 </v>
   <v>       0.01422222 </v>
   <v>       0.00711111 </v>
   <v>       0.00711111 </v>
   <v>       0.00711111 </v>
   <v>       0.00711111 </v>
   <v>       0.01422222 </v>
   <v>       0.01422222 </v>
   <v>       0.01422222 </v>
   <v>       0.00711111 </v>
   <v>       0.01422222 </v>
   <v>       0.01422222 </v>
   <v>       0.01422222 </v>
   <v>       0.01422222 </v>
   <v>       0.00711111 </v>
   <v>       0.00711111 </v>
   <v>       0.01422222 </v>
   <v>       0.01422222 </v>
   <v>       0.00711111 </v>
   <v>       0.00711111 </v>
   <v>       0.00711111 </v>
   <v>       0.00711111 </v>
   <v>       0.01422222 </v>
   <v>       0.00711111 </v>
   <v>       0.00711111 </v>
  </varray>
 </kpoints>
 <parameters>
  <separator name="general" >
   <i type="string" name="SYSTEM">r-GeO2 ENCUT convergence test</i>
   <i type="logical" name="LCOMPAT"> F  </i>
  </separator>
  <separator name="electronic" >
   <i type="string" name="PREC">accura</i>
   <i name="ENMAX">    500.00000000</i>
   <i name="ENAUG">    644.87300000</i>
   <i name="EDIFF">      0.00010000</i>
   <i type="int" name="IALGO">    38</i>
   <i type="int" name="IWAVPR">    10</i>
   <i type="int" name="NBANDS">     8</i>
   <i name="NELECT">      8.00000000</i>
   <i type="int" name="TURBO">     0</i>
   <i type="int" name="IRESTART">     0</i>
   <i type="int" name="NREBOOT">     0</i>
   <i type="int" name="NMIN">     0</i>
   <i name="EREF">      0.00000000</i>
   <separator name="electronic smearing" >
    <i type="int" name="ISMEAR">     0</i>
    <i name="SIGMA">      0.05000000</i>
    <i name="KSPACING">      0.50000000</i>
    <i type="logical" name="KGAMMA"> T  </i>
   </separator>
   <separator name="electronic projectors" >
    <i type="logical" name="LREAL"> F  </i>
    <v name="ROPT">      0.00000000</v>
    <i type="int" name="LMAXPAW">  -100</i>
    <i type="int" name="LMAXMIX">     2</i>
    <i type="logical" name="NLSPLINE"> F  </i>
   </separator>
   <separator name="electronic startup" >
    <i type="int" name="ISTART">     0</i>
    <i type="int" name="ICHARG">     2</i>
    <i type="int" name="INIWAV">     1</i>
   </separator>
   <separator name="electronic spin" >
    <i type="int" name="ISPIN">     1</i>
    <i type="logical" name="LNONCOLLINEAR"> F  </i>
    <v name="MAGMOM">      1.00000000      1.00000000</v>
    <i name="NUPDOWN">     -1.00000000</i>
    <i type="logical" name="LSORBIT"> F  </i>
    <v name="SAXIS">      0.00000000      0.00000000      1.00000000</v>
    <i type="logical" name="LSPIRAL"> F  </i>
    <v name="QSPIRAL">      0.00000000      0.00000000      0.00000000</v>
    <i type="logical" name="LZEROZ"> F  </i>
   </separator>
   <separator name="electronic exchange-correlation" >
    <i type="logical" name="LASPH"> T  </i>
    <i type="logical" name="LMETAGGA"> F  </i>
   </separator>
   <separator name="electronic convergence" >
    <i type="int" name="NELM">    60</i>
    <i type="int" name="NELMDL">    -5</i>
    <i type="int" name="NELMIN">     2</i>
    <i name="ENINI">    500.00000000</i>
    <separator name="electronic convergence detail" >
     <i type="logical" name="LDIAG"> T  </i>
     <i type="logical" name="LSUBROT"> F  </i>
     <i name="WEIMIN">      0.00000000</i>
     <i name="EBREAK">      0.00000313</i>
     <i name="DEPER">      0.30000000</i>
     <i type="int" name="NRMM">     4</i>
     <i name="TIME">      0.40000000</i>
    </separator>
   </separator>
   <separator name="electronic mixer" >
    <i name="AMIX">      0.40000000</i>
    <i name="BMIX">      1.00000000</i>
    <i name="AMIN">      0.10000000</i>
    <i name="AMIX_MAG">      1.60000000</i>
    <i name="BMIX_MAG">      1.00000000</i>
    <separator name="electronic mixer details" >
     <i type="int" name="IMIX">     4</i>
     <i type="logical" name="MIXFIRST"> F  </i>
     <i type="int" name="MAXMIX">   -45</i>
     <i name="WC">    100.00000000</i>
     <i type="int" name="INIMIX">     1</i>
     <i type="int" name="MIXPRE">     1</i>
     <i type="int" name="MREMOVE">     5</i>
    </separator>
   </separator>
   <separator name="electronic dipolcorrection" >
    <i type="logical" name="LDIPOL"> F  </i>
    <i type="logical" name="LMONO"> F  </i>
    <i type="int" name="IDIPOL">     0</i>
    <i name="EPSILON">      1.00000000</i>
    <v name="DIPOL">   -100.00000000   -100.00000000   -100.00000000</v>
    <i name="EFIELD">      0.00000000</i>
   </separator>
  </separator>
  <separator name="grids" >
   <i type="int" name="NGX">    18</i>
   <i type="int" name="NGY">    18</i>
   <i type="int" name="NGZ">    18</i>
   <i type="int" name="NGXF">    36</i>
   <i type="int" name="NGYF">    36</i>
   <i type="int" name="NGZF">    36</i>
   <i type="logical" name="ADDGRID"> F  </i>
  </separator>
  <separator name="ionic" >
   <i type="int" name="NSW">     0</i>
   <i type="int" name="IBRION">    -1</i>
   <i type="int" name="MDALGO">     0</i>
   <i type="int" name="ISIF">     2</i>
   <i name="PSTRESS">      0.00000000</i>
   <i name="EDIFFG">      0.00100000</i>
   <i type="int" name="NFREE">     0</i>
   <i name="POTIM">      0.50000000</i>
   <i name="SMASS">     -3.00000000</i>
   <i name="SCALEE">      1.00000000</i>
  </separator>
  <separator name="ionic md" >
   <i name="TEBEG">      0.00010000</i>
   <i name="TEEND">      0.00010000</i>
   <i type="int" name="NBLOCK">     1</i>
   <i type="int" name="KBLOCK">     1</i>
   <i type="int" name="NPACO">   256</i>
   <i name="APACO">     16.00000000</i>
  </separator>
  <separator name="symmetry" >
   <i type="int" name="ISYM">     2</i>
   <i name="SYMPREC">      0.00001000</i>
  </separator>
  <separator name="dos" >
   <i type="int" name="LORBIT">    11</i>
   <v name="RWIGS">     -1.00000000</v>
   <i type="int" name="NEDOS">   301</i>
   <i name="EMIN">     10.00000000</i>
   <i name="EMAX">    -10.00000000</i>
   <i name="EFERMI">      0.00000000</i>
  </separator>
  <separator name="writing" >
   <i type="int" name="NWRITE">     2</i>
   <i type="logical" name="LWAVE"> F  </i>
   <i type="logical" name="LDOWNSAMPLE"> F  </i>
   <i type="logical" name="LCHARG"> F  </i>
   <i type="logical" name="LPARD"> F  </i>
   <i type="logical" name="LVTOT"> F  </i>
   <i type="logical" name="LVHAR"> F  </i>
   <i type="logical" name="LELF"> F  </i>
   <i type="logical" name="LOPTICS"> F  </i>
   <v name="STM">      0.00000000      0.00000000      0.00000000      0.00000000      0.00000000      0.00000000      0.00000000</v>
  </separator>
  <separator name="performance" >
   <i type="int" name="NPAR">     2</i>
   <i type="int" name="NSIM">     4</i>
   <i type="int" name="NBLK">    -1</i>
   <i type="logical" name="LPLANE"> T  </i>
   <i type="logical" name="LSCALAPACK"> T  </i>
   <i type="logical" name="LSCAAWARE"> F  </i>
   <i type="logical" name="LSCALU"> F  </i>
   <i type="logical" name="LASYNC"> F  </i>
   <i type="logical" name="LORBITALREAL"> F  </i>
  </separator>
  <separator name="miscellaneous" >
   <i type="int" name="IDIOT">     3</i>
   <i type="int" name="ISPECIAL">     0</i>
   <i type="logical" name="LMUSIC"> F  </i>
   <v name="POMASS">     12.01100000</v>
   <v name="DARWINR">      0.00000000</v>
   <v name="DARWINV">      1.00000000</v>
   <i type="logical" name="LCORR"> T  </i>
  </separator>
  <i type="logical" name="GGA_COMPAT"> T  </i>
  <i type="logical" name="LBERRY"> F  </i>
  <i type="int" name="ICORELEVEL">     0</i>
  <i type="logical" name="LDAU"> F  </i>
  <i type="int" name="I_CONSTRAINED_M">     0</i>
  <separator name="electronic exchange-correlation" >
   <i type="string" name="GGA">--</i>
   <i type="int" name="VOSKOWN">     0</i>
   <i type="logical" name="LHFCALC"> F  </i>
   <i type="string" name="PRECFOCK"></i>
   <i type="logical" name="LSYMGRAD"> F  </i>
   <i type="logical" name="LHFONE"> F  </i>
   <i type="logical" name="LRHFCALC"> F  </i>
   <i type="logical" name="LTHOMAS"> F  </i>
   <i type="logical" name="LMODELHF"> F  </i>
   <i name="ENCUT4O">     -1.00000000</i>
   <i type="int" name="EXXOEP">     0</i>
   <i type="int" name="FOURORBIT">     0</i>
   <i name="AEXX">      0.00000000</i>
   <i name="HFALPHA">      0.00000000</i>
   <i name="MCALPHA">      0.00000000</i>
   <i name="ALDAX">      1.00000000</i>
   <i name="AGGAX">      1.00000000</i>
   <i name="ALDAC">      1.00000000</i>
   <i name="AGGAC">      1.00000000</i>
   <i type="int" name="NKREDX">     1</i>
   <i type="int" name="NKREDY">     1</i>
   <i type="int" name="NKREDZ">     1</i>
   <i type="logical" name="SHIFTRED"> F  </i>
   <i type="logical" name="ODDONLY"> F  </i>
   <i type="logical" name="EVENONLY"> F  </i>
   <i type="int" name="LMAXFOCK">     0</i>
   <i type="int" name="NMAXFOCKAE">     0</i>
   <i type="logical" name="LFOCKAEDFT"> F  </i>
   <i name="HFSCREEN">      0.00000000</i>
   <i name="HFSCREENC">      0.00000000</i>
   <i type="int" name="NBANDSGWLOW">     0</i>
  </separator>
  <separator name="vdW DFT" >
   <i type="logical" name="LUSE_VDW"> F  </i>
   <i name="Zab_VDW">     -0.84910000</i>
   <i name="PARAM1">      0.12340000</i>
   <i name="PARAM2">      1.00000000</i>
   <i name="PARAM3">      0.00000000</i>
  </separator>
  <separator name="model GW" >
   <i type="int" name="MODEL_GW">     0</i>
   <i name="MODEL_EPS0">      3.38597637</i>
   <i name="MODEL_ALPHA">      1.00000000</i>
  </separator>
  <separator name="linear response parameters" >
   <i type="logical" name="LEPSILON"> F  </i>
   <i type="logical" name="LRPA"> F  </i>
   <i type="logical" name="LNABLA"> F  </i>
   <i type="logical" name="LVEL"> F  </i>
   <i type="int" name="KINTER">     0</i>
   <i name="CSHIFT">      0.10000000</i>
   <i name="OMEGAMAX">     -1.00000000</i>
   <i name="DEG_THRESHOLD">      0.00200000</i>
   <i name="RTIME">     -0.10000000</i>
   <i name="WPLASMAI">      0.00000000</i>
   <v name="DFIELD">      0.00000000      0.00000000      0.00000000</v>
   <v name="WPLASMA">      0.00000000      0.00000000      0.00000000      0.00000000      0.00000000      0.00000000      0.00000000      0.00000000      0.00000000</v>
  </separator>
  <separator name="orbital magnetization" >
   <i type="logical" name="NUCIND"> F  </i>
   <v name="MAGPOS">      0.00000000      0.00000000      0.00000000</v>
   <i type="logical" name="LNICSALL"> T  </i>
   <i type="logical" name="ORBITALMAG"> F  </i>
   <i type="logical" name="LMAGBLOCH"> F  </i>
   <i type="logical" name="LCHIMAG"> F  </i>
   <i type="logical" name="LGAUGE"> T  </i>
   <i type="int" name="MAGATOM">     0</i>
   <v name="MAGDIPOL">      0.00000000      0.00000000      0.00000000</v>
   <v name="AVECCONST">      0.00000000      0.00000000      0.00000000</v>
  </separator>
  <separator name="response functions" >
   <i type="logical" name="LADDER"> F  </i>
   <i type="logical" name="LRPAFORCE"> F  </i>
   <i type="logical" name="LFXC"> F  </i>
   <i type="logical" name="LHARTREE"> T  </i>
   <i type="int" name="IBSE">     0</i>
   <v type="int" name="KPOINT">    -1     0     0     0</v>
   <i type="logical" name="LTCTE"> F  </i>
   <i type="logical" name="LTETE"> F  </i>
   <i type="logical" name="LTRIPLET"> F  </i>
   <i type="logical" name="LFXCEPS"> F  </i>
   <i type="logical" name="LFXHEG"> F  </i>
   <i type="int" name="NATURALO">     2</i>
   <i type="logical" name="L2ORDER"> F  </i>
   <i type="logical" name="LMP2LT"> F  </i>
   <i type="logical" name="LUSEW"> F  </i>
   <i name="ENCUTGW">     -2.00000000</i>
   <i name="ENCUTGWSOFT">     -2.00000000</i>
   <i name="ENCUTLF">     -1.00000000</i>
   <i type="int" name="LMAXMP2">    -1</i>
   <i name="SCISSOR">      0.00000000</i>
   <i type="int" name="NOMEGA">     0</i>
   <i type="int" name="NOMEGAR">     0</i>
   <i type="int" name="NBANDSGW">    -1</i>
   <i type="int" name="NBANDSO">    -1</i>
   <i type="int" name="NBANDSV">    -1</i>
   <i type="int" name="NELM">     1</i>
   <i type="int" name="NELMHF">     1</i>
   <i type="int" name="DIM">     3</i>
   <i type="int" name="ANTIRES">     0</i>
   <i name="OMEGAMAX">    -30.00000000</i>
   <i name="OMEGAMIN">    -30.00000000</i>
   <i name="OMEGATL">   -200.00000000</i>
   <i type="int" name="OMEGAGRID">   140</i>
   <i name="CSHIFT">     -0.10000000</i>
   <i type="logical" name="SELFENERGY"> F  </i>
   <i type="logical" name="LSPECTRAL"> F  </i>
   <i type="logical" name="LSPECTRALGW"> F  </i>
   <i type="logical" name="LSINGLES"> F  </i>
   <i type="logical" name="LFERMIGW"> F  </i>
   <i type="logical" name="ODDONLYGW"> F  </i>
   <i type="logical" name="EVENONLYGW"> F  </i>
   <i type="int" name="NKREDLFX">     1</i>
   <i type="int" name="NKREDLFY">     1</i>
   <i type="int" name="NKREDLFZ">     1</i>
   <i type="int" name="MAXMEM">  2800</i>
   <i type="int" name="TELESCOPE">     0</i>
   <i type="int" name="TAUPAR">     1</i>
   <i type="int" name="OMEGAPAR">    -1</i>
   <i name="LAMBDA">      1.00000000</i>
  </separator>
  <separator name="External order field" >
   <i name="OFIELD_KAPPA">      0.00000000</i>
   <v name="OFIELD_K">      0.00000000      0.00000000      0.00000000</v>
   <i name="OFIELD_Q6_NEAR">      0.00000000</i>
   <i name="OFIELD_Q6_FAR">      0.00000000</i>
   <i name="OFIELD_A">      0.00000000</i>
  </separator>
 </parameters>
 <atominfo>
  <atoms>       2 </atoms>
  <types>       1 </types>
  <array name="atoms" >
   <dimension dim="1">ion</dimension>
   <field type="string">element</field>
   <field type="int">atomtype</field>
   <set>
    <rc><c>C </c><c>   1</c></rc>
    <rc><c>C </c><c>   1</c></rc>
   </set>
  </array>
  <array name="atomtypes" >
   <dimension dim="1">type</dimension>
   <field type="int">atomspertype</field>
   <field type="string">element</field>
   <field>mass</field>
   <field>valence</field>
   <field type="string">pseudopotential</field>
   <set>
    <rc><c>   2</c><c>C </c><c>     12.01100000</c><c>      4.00000000</c><c>  PAW_PBE C 08Apr2002                   </c></rc>
   </set>
  </array>
 </atominfo>
 <structure name="initialpos" >
  <crystal>
   <varray name="basis" >
    <v>       2.18050236       0.00000000       1.25891346 </v>
    <v>       0.72683412       2.05579703       1.25891346 </v>
    <v>       0.00000000       0.00000000       2.51782692 </v>
   </varray>
   <i name="volume">     11.28658789 </i>
   <varray name="rec_basis" >
    <v>       0.45860991      -0.16214311       0.00000000 </v>
    <v>       0.00000000       0.48642934       0.00000000 </v>
    <v>      -0.22930496      -0.16214311       0.39716789 </v>
   </varray>
  </crystal>
  <varray name="positions" >
   <v>       0.87500000       0.87500000       0.87500000 </v>
   <v>       0.12500000       0.12500000       0.12500000 </v>
  </varray>
 </structure>
 <calculation>
  <scstep>
   <time name="dav">    0.18    0.18</time>
   <time name="total">    0.21    0.21</time>
   <energy>
    <i name="alphaZ">     10.47288859 </i>
    <i name="ewald">   -348.55062700 </i>
    <i name="hartreedc">    -17.50286058 </i>
    <i name="XCdc">     27.43730065 </i>
    <i name="pawpsdc">    217.04409276 </i>
    <i name="pawaedc">   -218.18290438 </i>
    <i name="eentropy">     -0.00004559 </i>
    <i name="bandstr">      4.13685730 </i>
    <i name="atom">    294.29684335 </i>
    <i name="e_fr_energy">    -30.84845490 </i>
    <i name="e_wo_entrp">    -30.84840931 </i>
    <i name="e_0_energy">    -30.84843211 </i>
   </energy>
  </scstep>
  <scstep>
   <time name="dav">    0.26    0.26</time>
   <time name="total">    0.26    0.26</time>
   <energy>
    <i name="e_fr_energy">    -44.84739276 </i>
    <i name="e_wo_entrp">    -44.84739276 </i>
    <i name="e_0_energy">    -44.84739276 </i>
   </energy>
  </scstep>
  <scstep>
   <time name="dav">    0.17    0.17</time>
   <time name="total">    0.17    0.17</time>
   <energy>
    <i name="e_fr_energy">    -44.92354026 </i>
    <i name="e_wo_entrp">    -44.92354026 </i>
    <i name="e_0_energy">    -44.92354026 </i>
   </energy>
  </scstep>
  <scstep>
   <time name="dav">    0.21    0.21</time>
   <time name="total">    0.22    0.22</time>
   <energy>
    <i name="e_fr_energy">    -44.92366557 </i>
    <i name="e_wo_entrp">    -44.92366557 </i>
    <i name="e_0_energy">    -44.92366557 </i>
   </energy>
  </scstep>
  <scstep>
   <time name="dav">    0.16    0.16</time>
   <time name="total">    0.17    0.17</time>
   <energy>
    <i name="e_fr_energy">    -44.92366563 </i>
    <i name="e_wo_entrp">    -44.92366563 </i>
    <i name="e_0_energy">    -44.92366563 </i>
   </energy>
  </scstep>
  <scstep>
   <time name="dav">    0.17    0.17</time>
   <time name="total">    0.21    0.21</time>
   <energy>
    <i name="e_fr_energy">    -44.22225257 </i>
    <i name="e_wo_entrp">    -44.22225257 </i>
    <i name="e_0_energy">    -44.22225257 </i>
   </energy>
  </scstep>
  <scstep>
   <time name="dav">    0.19    0.19</time>
   <time name="total">    0.24    0.24</time>
   <energy>
    <i name="e_fr_energy">    -43.98261944 </i>
    <i name="e_wo_entrp">    -43.98261944 </i>
    <i name="e_0_energy">    -43.98261944 </i>
   </energy>
  </scstep>
  <scstep>
   <time name="dav">    0.17    0.17</time>
   <time name="total">    0.22    0.22</time>
   <energy>
    <i name="e_fr_energy">    -43.98555349 </i>
    <i name="e_wo_entrp">    -43.98555349 </i>
    <i name="e_0_energy">    -43.98555349 </i>
   </energy>
  </scstep>
  <scstep>
   <time name="dav">    0.22    0.22</time>
   <time name="total">    0.26    0.26</time>
   <energy>
    <i name="alphaZ">     10.47288859 </i>
    <i name="ewald">   -348.55062700 </i>
    <i name="hartreedc">    -28.67066437 </i>
    <i name="XCdc">     28.46372458 </i>
    <i name="pawpsdc">    840.31943377 </i>
    <i name="pawaedc">   -841.67634827 </i>
    <i name="eentropy">     -0.00000000 </i>
    <i name="bandstr">      1.35915866 </i>
    <i name="atom">    294.29684335 </i>
    <i name="e_fr_energy">    -43.98559069 </i>
    <i name="e_wo_entrp">    -43.98559069 </i>
    <i name="e_0_energy">    -43.98559069 </i>
   </energy>
  </scstep>
  <structure>
   <crystal>
    <varray name="basis" >
     <v>       2.18050236       0.00000000       1.25891346 </v>
     <v>       0.72683412       2.05579703       1.25891346 </v>
     <v>       0.00000000       0.00000000       2.51782692 </v>
    </varray>
    <i name="volume">     11.28658789 </i>
    <varray name="rec_basis" >
     <v>       0.45860991      -0.16214311       0.00000000 </v>
     <v>       0.00000000       0.48642934       0.00000000 </v>
     <v>      -0.22930496      -0.16214311       0.39716789 </v>
    </varray>
   </crystal>
   <varray name="positions" >
    <v>       0.87500000       0.87500000       0.87500000 </v>
    <v>       0.12500000       0.12500000       0.12500000 </v>
   </varray>
  </structure>
  <varray name="forces" >
   <v>       0.00000000      -0.00000000      -0.00000000 </v>
   <v>      -0.00000000       0.00000000       0.00000000 </v>
  </varray>
  <varray name="stress" >
   <v>   -2162.66638511       0.00000000      -0.00000000 </v>
   <v>       0.00000000   -2162.66573246      -0.00000000 </v>
   <v>      -0.00000000      -0.00000000   -2162.66581988 </v>
  </varray>
  <energy>
   <i name="e_fr_energy">    -43.98559069 </i>
   <i name="e_wo_entrp">    -43.98559069 </i>
   <i name="e_0_energy">     -0.00000000 </i>
  </energy>
  <time name="totalsc">    2.07    2.07</time>
  <eigenvalues>
   <array>
    <dimension dim="1">band</dimension>
    <dimension dim="2">kpoint</dimension>
    <dimension dim="3">spin</dimension>
    <field>eigene</field>
    <field>occ</field>
    <set>
     <set comment="spin 1">
      <set comment="kpoint 1">
       <r>  -12.1594    1.0000 </r>
       <r>    8.8921    1.0000 </r>
       <r>    8.8921    1.0000 </r>
       <r>    8.8921    1.0000 </r>
       <r>   14.9968    0.0000 </r>
       <r>   14.9968    0.0000 </r>
       <r>   14.9968    0.0000 </r>
       <r>   22.8678    0.0000 </r>
      </set>
      <set comment="kpoint 2">
       <r>  -12.0382    1.0000 </r>
       <r>    8.1243    1.0000 </r>
       <r>    8.6937    1.0000 </r>
       <r>    8.6937    1.0000 </r>
       <r>   15.2632    0.0000 </r>
       <r>   15.2632    0.0000 </r>
       <r>   15.4675    0.0000 </r>
       <r>   22.9782    0.0000 </r>
      </set>
      <set comment="kpoint 3">
       <r>  -11.6757    1.0000 </r>
       <r>    6.3601    1.0000 </r>
       <r>    8.2097    1.0000 </r>
       <r>    8.2097    1.0000 </r>
       <r>   15.9186    0.0000 </r>
       <r>   15.9186    0.0000 </r>
       <r>   16.3675    0.0000 </r>
       <r>   23.3074    0.0000 </r>
      </set>
      <set comment="kpoint 4">
       <r>  -11.0755    1.0000 </r>
       <r>    4.2264    1.0000 </r>
       <r>    7.6320    1.0000 </r>
       <r>    7.6320    1.0000 </r>
       <r>   16.6840    0.0000 </r>
       <r>   16.6840    0.0000 </r>
       <r>   17.1588    0.0000 </r>
       <r>   23.8292    0.0000 </r>
      </set>
      <set comment="kpoint 5">
       <r>  -10.2456    1.0000 </r>
       <r>    2.0104    1.0000 </r>
       <r>    7.0900    1.0000 </r>
       <r>    7.0900    1.0000 </r>
       <r>   17.3272    0.0000 </r>
       <r>   17.3272    0.0000 </r>
       <r>   17.7114    0.0000 </r>
       <r>   24.4616    0.0000 </r>
      </set>
      <set comment="kpoint 6">
       <r>   -9.2031    1.0000 </r>
       <r>   -0.1429    1.0000 </r>
       <r>    6.6505    1.0000 </r>
       <r>    6.6505    1.0000 </r>
       <r>   17.7331    0.0000 </r>
       <r>   17.7331    0.0000 </r>
       <r>   18.0589    0.0000 </r>
       <r>   25.0734    0.0000 </r>
      </set>
      <set comment="kpoint 7">
       <r>   -7.9962    1.0000 </r>
       <r>   -2.1187    1.0000 </r>
       <r>    6.3458    1.0000 </r>
       <r>    6.3458    1.0000 </r>
       <r>   17.9238    0.0000 </r>
       <r>   17.9238    0.0000 </r>
       <r>   18.2589    0.0000 </r>
       <r>   25.5251    0.0000 </r>
      </set>
      <set comment="kpoint 8">
       <r>   -6.8496    1.0000 </r>
       <r>   -3.6576    1.0000 </r>
       <r>    6.1906    1.0000 </r>
       <r>    6.1906    1.0000 </r>
       <r>   17.9862    0.0000 </r>
       <r>   17.9862    0.0000 </r>
       <r>   18.3504    0.0000 </r>
       <r>   25.7542    0.0000 </r>
      </set>
      <set comment="kpoint 9">
       <r>  -11.9978    1.0000 </r>
       <r>    8.3227    1.0000 </r>
       <r>    8.3227    1.0000 </r>
       <r>    8.4993    1.0000 </r>
       <r>   14.8956    0.0000 </r>
       <r>   15.7143    0.0000 </r>
       <r>   15.7143    0.0000 </r>
       <r>   22.9795    0.0000 </r>
      </set>
      <set comment="kpoint 10">
       <r>  -11.7158    1.0000 </r>
       <r>    6.9483    1.0000 </r>
       <r>    7.7458    1.0000 </r>
       <r>    8.2982    1.0000 </r>
       <r>   15.0913    0.0000 </r>
       <r>   16.4870    0.0000 </r>
       <r>   16.5444    0.0000 </r>
       <r>   23.1282    0.0000 </r>
      </set>
      <set comment="kpoint 11">
       <r>  -11.1948    1.0000 </r>
       <r>    4.9579    1.0000 </r>
       <r>    7.1411    1.0000 </r>
       <r>    7.8515    1.0000 </r>
       <r>   15.7109    0.0000 </r>
       <r>   17.3212    0.0000 </r>
       <r>   17.3810    0.0000 </r>
       <r>   23.4138    0.0000 </r>
      </set>
      <set comment="kpoint 12">
       <r>  -10.4412    1.0000 </r>
       <r>    2.7883    1.0000 </r>
       <r>    6.6160    1.0000 </r>
       <r>    7.2816    1.0000 </r>
       <r>   16.4434    0.0000 </r>
       <r>   17.9988    0.0000 </r>
       <r>   17.9988    0.0000 </r>
       <r>   23.8306    0.0000 </r>
      </set>
      <set comment="kpoint 13">
       <r>   -9.4681    1.0000 </r>
       <r>    0.6257    1.0000 </r>
       <r>    6.2248    1.0000 </r>
       <r>    6.7219    1.0000 </r>
       <r>   17.0467    0.0000 </r>
       <r>   18.3964    0.0000 </r>
       <r>   18.3965    0.0000 </r>
       <r>   24.3865    0.0000 </r>
      </set>
      <set comment="kpoint 14">
       <r>   -8.3085    1.0000 </r>
       <r>   -1.4089    1.0000 </r>
       <r>    5.9926    1.0000 </r>
       <r>    6.2457    1.0000 </r>
       <r>   17.4443    0.0000 </r>
       <r>   18.5191    0.0000 </r>
       <r>   18.6296    0.0000 </r>
       <r>   25.0092    0.0000 </r>
      </set>
      <set comment="kpoint 15">
       <r>   -7.0882    1.0000 </r>
       <r>   -3.1427    1.0000 </r>
       <r>    5.8926    1.0000 </r>
       <r>    5.9278    1.0000 </r>
       <r>   17.6964    0.0000 </r>
       <r>   18.4574    0.0000 </r>
       <r>   18.7449    0.0000 </r>
       <r>   25.5061    0.0000 </r>
      </set>
      <set comment="kpoint 16">
       <r>   -6.5454    1.0000 </r>
       <r>   -3.8151    1.0000 </r>
       <r>    5.6853    1.0000 </r>
       <r>    6.0291    1.0000 </r>
       <r>   17.8862    0.0000 </r>
       <r>   18.3002    0.0000 </r>
       <r>   18.7673    0.0000 </r>
       <r>   25.6834    0.0000 </r>
      </set>
      <set comment="kpoint 17">
       <r>   -7.4826    1.0000 </r>
       <r>   -2.6178    1.0000 </r>
       <r>    5.6376    1.0000 </r>
       <r>    6.2875    1.0000 </r>
       <r>   18.0387    0.0000 </r>
       <r>   18.0774    0.0000 </r>
       <r>   18.7010    0.0000 </r>
       <r>   25.4827    0.0000 </r>
      </set>
      <set comment="kpoint 18">
       <r>   -8.7122    1.0000 </r>
       <r>   -0.7494    1.0000 </r>
       <r>    5.7567    1.0000 </r>
       <r>    6.6867    1.0000 </r>
       <r>   17.7518    0.0000 </r>
       <r>   18.1024    0.0000 </r>
       <r>   18.5241    0.0000 </r>
       <r>   24.9814    0.0000 </r>
      </set>
      <set comment="kpoint 19">
       <r>   -9.8158    1.0000 </r>
       <r>    1.3418    1.0000 </r>
       <r>    6.0421    1.0000 </r>
       <r>    7.1989    1.0000 </r>
       <r>   17.2577    0.0000 </r>
       <r>   17.9838    0.0000 </r>
       <r>   18.1764    0.0000 </r>
       <r>   24.3717    0.0000 </r>
      </set>
      <set comment="kpoint 20">
       <r>  -10.7178    1.0000 </r>
       <r>    3.5212    1.0000 </r>
       <r>    6.4833    1.0000 </r>
       <r>    7.7749    1.0000 </r>
       <r>   16.5847    0.0000 </r>
       <r>   17.5426    0.0000 </r>
       <r>   17.6533    0.0000 </r>
       <r>   23.8290    0.0000 </r>
      </set>
      <set comment="kpoint 21">
       <r>  -11.3948    1.0000 </r>
       <r>    5.6480    1.0000 </r>
       <r>    7.0563    1.0000 </r>
       <r>    8.3237    1.0000 </r>
       <r>   15.8571    0.0000 </r>
       <r>   16.7301    0.0000 </r>
       <r>   17.0091    0.0000 </r>
       <r>   23.4126    0.0000 </r>
      </set>
      <set comment="kpoint 22">
       <r>  -11.8366    1.0000 </r>
       <r>    7.3913    1.0000 </r>
       <r>    7.7893    1.0000 </r>
       <r>    8.6882    1.0000 </r>
       <r>   15.3289    0.0000 </r>
       <r>   15.8792    0.0000 </r>
       <r>   16.1651    0.0000 </r>
       <r>   23.1253    0.0000 </r>
      </set>
      <set comment="kpoint 23">
       <r>  -11.5147    1.0000 </r>
       <r>    7.1161    1.0000 </r>
       <r>    7.1161    1.0000 </r>
       <r>    7.4172    1.0000 </r>
       <r>   14.6353    0.0000 </r>
       <r>   17.3576    0.0000 </r>
       <r>   17.3576    0.0000 </r>
       <r>   22.8897    0.0000 </r>
      </set>
      <set comment="kpoint 24">
       <r>  -11.0742    1.0000 </r>
       <r>    5.5673    1.0000 </r>
       <r>    6.4861    1.0000 </r>
       <r>    7.1516    1.0000 </r>
       <r>   14.7932    0.0000 </r>
       <r>   18.2721    0.0000 </r>
       <r>   18.2882    0.0000 </r>
       <r>   22.6341    0.0000 </r>
      </set>
      <set comment="kpoint 25">
       <r>  -10.3996    1.0000 </r>
       <r>    3.5735    1.0000 </r>
       <r>    5.9552    1.0000 </r>
       <r>    6.6818    1.0000 </r>
       <r>   15.4040    0.0000 </r>
       <r>   18.9929    0.0000 </r>
       <r>   19.0649    0.0000 </r>
       <r>   22.5036    0.0000 </r>
      </set>
      <set comment="kpoint 26">
       <r>   -9.5013    1.0000 </r>
       <r>    1.4869    1.0000 </r>
       <r>    5.5757    1.0000 </r>
       <r>    6.0744    1.0000 </r>
       <r>   16.1144    0.0000 </r>
       <r>   19.4682    0.0000 </r>
       <r>   19.5416    0.0000 </r>
       <r>   22.7242    0.0000 </r>
      </set>
      <set comment="kpoint 27">
       <r>   -8.4034    1.0000 </r>
       <r>   -0.5429    1.0000 </r>
       <r>    5.3723    1.0000 </r>
       <r>    5.4701    1.0000 </r>
       <r>   16.6683    0.0000 </r>
       <r>   19.6884    0.0000 </r>
       <r>   19.7501    0.0000 </r>
       <r>   23.4179    0.0000 </r>
      </set>
      <set comment="kpoint 28">
       <r>   -7.1825    1.0000 </r>
       <r>   -2.3701    1.0000 </r>
       <r>    4.9507    1.0000 </r>
       <r>    5.3533    1.0000 </r>
       <r>   17.0459    0.0000 </r>
       <r>   19.5792    0.0000 </r>
       <r>   19.8952    0.0000 </r>
       <r>   24.4089    0.0000 </r>
      </set>
      <set comment="kpoint 29">
       <r>   -6.2579    1.0000 </r>
       <r>   -3.5394    1.0000 </r>
       <r>    4.5638    1.0000 </r>
       <r>    5.5155    1.0000 </r>
       <r>   17.3537    0.0000 </r>
       <r>   19.3125    0.0000 </r>
       <r>   19.9426    0.0000 </r>
       <r>   25.2271    0.0000 </r>
      </set>
      <set comment="kpoint 30">
       <r>   -6.7977    1.0000 </r>
       <r>   -2.8695    1.0000 </r>
       <r>    4.3382    1.0000 </r>
       <r>    5.8460    1.0000 </r>
       <r>   17.6597    0.0000 </r>
       <r>   18.9417    0.0000 </r>
       <r>   19.9029    0.0000 </r>
       <r>   25.3276    0.0000 </r>
      </set>
      <set comment="kpoint 31">
       <r>   -8.0069    1.0000 </r>
       <r>   -1.1618    1.0000 </r>
       <r>    4.2925    1.0000 </r>
       <r>    6.3205    1.0000 </r>
       <r>   17.9438    0.0000 </r>
       <r>   18.4565    0.0000 </r>
       <r>   19.7486    0.0000 </r>
       <r>   24.7303    0.0000 </r>
      </set>
      <set comment="kpoint 32">
       <r>   -9.1584    1.0000 </r>
       <r>    0.8264    1.0000 </r>
       <r>    4.4393    1.0000 </r>
       <r>    6.8986    1.0000 </r>
       <r>   17.8199    0.0000 </r>
       <r>   18.1119    0.0000 </r>
       <r>   19.3817    0.0000 </r>
       <r>   24.0034    0.0000 </r>
      </set>
      <set comment="kpoint 33">
       <r>  -10.1260    1.0000 </r>
       <r>    2.8926    1.0000 </r>
       <r>    4.7990    1.0000 </r>
       <r>    7.5119    1.0000 </r>
       <r>   17.0531    0.0000 </r>
       <r>   18.0476    0.0000 </r>
       <r>   18.6783    0.0000 </r>
       <r>   23.5747    0.0000 </r>
      </set>
      <set comment="kpoint 34">
       <r>  -10.8761    1.0000 </r>
       <r>    4.7031    1.0000 </r>
       <r>    5.5525    1.0000 </r>
       <r>    8.0439    1.0000 </r>
       <r>   16.3098    0.0000 </r>
       <r>   17.6766    0.0000 </r>
       <r>   17.7050    0.0000 </r>
       <r>   23.4558    0.0000 </r>
      </set>
      <set comment="kpoint 35">
       <r>  -10.7149    1.0000 </r>
       <r>    5.8310    1.0000 </r>
       <r>    5.8310    1.0000 </r>
       <r>    5.8395    1.0000 </r>
       <r>   14.3163    0.0000 </r>
       <r>   19.3463    0.0000 </r>
       <r>   19.3463    0.0000 </r>
       <r>   21.7260    0.0000 </r>
      </set>
      <set comment="kpoint 36">
       <r>  -10.1209    1.0000 </r>
       <r>    4.1553    1.0000 </r>
       <r>    5.2776    1.0000 </r>
       <r>    5.6268    1.0000 </r>
       <r>   14.4893    0.0000 </r>
       <r>   20.2485    0.0000 </r>
       <r>   20.2786    0.0000 </r>
       <r>   21.0058    0.0000 </r>
      </set>
      <set comment="kpoint 37">
       <r>   -9.3008    1.0000 </r>
       <r>    2.2839    1.0000 </r>
       <r>    4.8815    1.0000 </r>
       <r>    5.0642    1.0000 </r>
       <r>   15.1187    0.0000 </r>
       <r>   20.6451    0.0000 </r>
       <r>   20.9133    0.0000 </r>
       <r>   20.9735    0.0000 </r>
      </set>
      <set comment="kpoint 38">
       <r>   -8.2733    1.0000 </r>
       <r>    0.3678    1.0000 </r>
       <r>    4.3708    1.0000 </r>
       <r>    4.6703    1.0000 </r>
       <r>   15.7880    0.0000 </r>
       <r>   21.0150    0.0000 </r>
       <r>   21.1735    0.0000 </r>
       <r>   21.4148    0.0000 </r>
      </set>
      <set comment="kpoint 39">
       <r>   -7.0892    1.0000 </r>
       <r>   -1.4500    1.0000 </r>
       <r>    3.7064    1.0000 </r>
       <r>    4.6547    1.0000 </r>
       <r>   16.2672    0.0000 </r>
       <r>   21.0995    0.0000 </r>
       <r>   21.3961    0.0000 </r>
       <r>   22.3759    0.0000 </r>
      </set>
      <set comment="kpoint 40">
       <r>   -5.9779    1.0000 </r>
       <r>   -2.8824    1.0000 </r>
       <r>    3.1587    1.0000 </r>
       <r>    4.8328    1.0000 </r>
       <r>   16.6371    0.0000 </r>
       <r>   20.7830    0.0000 </r>
       <r>   21.5019    0.0000 </r>
       <r>   23.8379    0.0000 </r>
      </set>
      <set comment="kpoint 41">
       <r>   -5.9944    1.0000 </r>
       <r>   -2.8469    1.0000 </r>
       <r>    2.7768    1.0000 </r>
       <r>    5.1913    1.0000 </r>
       <r>   17.0224    0.0000 </r>
       <r>   20.2921    0.0000 </r>
       <r>   21.4985    0.0000 </r>
       <r>   24.8862    0.0000 </r>
      </set>
      <set comment="kpoint 42">
       <r>   -7.1083    1.0000 </r>
       <r>   -1.3760    1.0000 </r>
       <r>    2.5936    1.0000 </r>
       <r>    5.7034    1.0000 </r>
       <r>   17.4496    0.0000 </r>
       <r>   19.6387    0.0000 </r>
       <r>   21.3682    0.0000 </r>
       <r>   24.5532    0.0000 </r>
      </set>
      <set comment="kpoint 43">
       <r>   -8.2867    1.0000 </r>
       <r>    0.4463    1.0000 </r>
       <r>    2.6546    1.0000 </r>
       <r>    6.3224    1.0000 </r>
       <r>   17.8535    0.0000 </r>
       <r>   18.8151    0.0000 </r>
       <r>   20.9245    0.0000 </r>
       <r>   23.7159    0.0000 </r>
      </set>
      <set comment="kpoint 44">
       <r>   -9.3094    1.0000 </r>
       <r>    2.0947    1.0000 </r>
       <r>    3.2171    1.0000 </r>
       <r>    6.9687    1.0000 </r>
       <r>   17.8883    0.0000 </r>
       <r>   18.1002    0.0000 </r>
       <r>   19.9350    0.0000 </r>
       <r>   23.4030    0.0000 </r>
      </set>
      <set comment="kpoint 45">
       <r>   -9.6080    1.0000 </r>
       <r>    3.9322    1.0000 </r>
       <r>    4.6933    1.0000 </r>
       <r>    4.6933    1.0000 </r>
       <r>   14.0491    0.0000 </r>
       <r>   19.7586    0.0000 </r>
       <r>   21.4133    0.0000 </r>
       <r>   21.4133    0.0000 </r>
      </set>
      <set comment="kpoint 46">
       <r>   -8.8683    1.0000 </r>
       <r>    2.5785    1.0000 </r>
       <r>    4.1742    1.0000 </r>
       <r>    4.2641    1.0000 </r>
       <r>   14.2821    0.0000 </r>
       <r>   19.0136    0.0000 </r>
       <r>   22.2676    0.0000 </r>
       <r>   22.2716    0.0000 </r>
      </set>
      <set comment="kpoint 47">
       <r>   -7.9167    1.0000 </r>
       <r>    0.9985    1.0000 </r>
       <r>    3.3987    1.0000 </r>
       <r>    4.0224    1.0000 </r>
       <r>   14.9358    0.0000 </r>
       <r>   18.9766    0.0000 </r>
       <r>   22.7195    0.0000 </r>
       <r>   22.8104    0.0000 </r>
      </set>
      <set comment="kpoint 48">
       <r>   -6.7893    1.0000 </r>
       <r>   -0.6190    1.0000 </r>
       <r>    2.5498    1.0000 </r>
       <r>    3.9822    1.0000 </r>
       <r>   15.5229    0.0000 </r>
       <r>   19.8582    0.0000 </r>
       <r>   22.7545    0.0000 </r>
       <r>   23.1082    0.0000 </r>
      </set>
      <set comment="kpoint 49">
       <r>   -5.6195    1.0000 </r>
       <r>   -2.0737    1.0000 </r>
       <r>    1.8058    1.0000 </r>
       <r>    4.1440    1.0000 </r>
       <r>   15.9328    0.0000 </r>
       <r>   21.4589    0.0000 </r>
       <r>   22.4404    0.0000 </r>
       <r>   23.2865    0.0000 </r>
      </set>
      <set comment="kpoint 50">
       <r>   -5.1497    1.0000 </r>
       <r>   -2.5761    1.0000 </r>
       <r>    1.2556    1.0000 </r>
       <r>    4.4966    1.0000 </r>
       <r>   16.3393    0.0000 </r>
       <r>   21.8483    0.0000 </r>
       <r>   22.8812    0.0000 </r>
       <r>   23.7772    0.0000 </r>
      </set>
      <set comment="kpoint 51">
       <r>   -6.0574    1.0000 </r>
       <r>   -1.4586    1.0000 </r>
       <r>    0.9702    1.0000 </r>
       <r>    5.0143    1.0000 </r>
       <r>   16.8264    0.0000 </r>
       <r>   21.0093    0.0000 </r>
       <r>   23.0455    0.0000 </r>
       <r>   24.3617    0.0000 </r>
      </set>
      <set comment="kpoint 52">
       <r>   -7.2276    1.0000 </r>
       <r>   -0.1144    1.0000 </r>
       <r>    1.2374    1.0000 </r>
       <r>    5.6500    1.0000 </r>
       <r>   17.3678    0.0000 </r>
       <r>   19.9571    0.0000 </r>
       <r>   22.4483    0.0000 </r>
       <r>   23.7207    0.0000 </r>
      </set>
      <set comment="kpoint 53">
       <r>   -8.2095    1.0000 </r>
       <r>    1.8216    1.0000 </r>
       <r>    3.7942    1.0000 </r>
       <r>    3.7942    1.0000 </r>
       <r>   13.9277    0.0000 </r>
       <r>   17.8302    0.0000 </r>
       <r>   23.3810    0.0000 </r>
       <r>   23.3810    0.0000 </r>
      </set>
      <set comment="kpoint 54">
       <r>   -7.3367    1.0000 </r>
       <r>    0.6463    1.0000 </r>
       <r>    3.1828    1.0000 </r>
       <r>    3.5098    1.0000 </r>
       <r>   14.2533    0.0000 </r>
       <r>   17.2896    0.0000 </r>
       <r>   24.0804    0.0000 </r>
       <r>   24.1197    0.0000 </r>
      </set>
      <set comment="kpoint 55">
       <r>   -6.2772    1.0000 </r>
       <r>   -0.5682    1.0000 </r>
       <r>    2.1835    1.0000 </r>
       <r>    3.4288    1.0000 </r>
       <r>   14.8993    0.0000 </r>
       <r>   17.6358    0.0000 </r>
       <r>   24.2854    0.0000 </r>
       <r>   24.5217    0.0000 </r>
      </set>
      <set comment="kpoint 56">
       <r>   -5.1152    1.0000 </r>
       <r>   -1.7252    1.0000 </r>
       <r>    1.1167    1.0000 </r>
       <r>    3.5549    1.0000 </r>
       <r>   15.3547    0.0000 </r>
       <r>   19.0507    0.0000 </r>
       <r>   24.0175    0.0000 </r>
       <r>   24.6922    0.0000 </r>
      </set>
      <set comment="kpoint 57">
       <r>   -4.3297    1.0000 </r>
       <r>   -2.4129    1.0000 </r>
       <r>    0.2855    1.0000 </r>
       <r>    3.8799    1.0000 </r>
       <r>   15.7439    0.0000 </r>
       <r>   21.0811    0.0000 </r>
       <r>   23.3386    0.0000 </r>
       <r>   24.7173    0.0000 </r>
      </set>
      <set comment="kpoint 58">
       <r>   -4.9595    1.0000 </r>
       <r>   -1.8178    1.0000 </r>
       <r>    0.0337    1.0000 </r>
       <r>    4.3808    1.0000 </r>
       <r>   16.2314    0.0000 </r>
       <r>   22.3042    0.0000 </r>
       <r>   23.0554    0.0000 </r>
       <r>   24.5174    0.0000 </r>
      </set>
      <set comment="kpoint 59">
       <r>   -6.5430    1.0000 </r>
       <r>   -0.3797    1.0000 </r>
       <r>    3.1771    1.0000 </r>
       <r>    3.1771    1.0000 </r>
       <r>   14.0282    0.0000 </r>
       <r>   16.2738    0.0000 </r>
       <r>   25.0377    0.0000 </r>
       <r>   25.0377    0.0000 </r>
      </set>
      <set comment="kpoint 60">
       <r>   -5.5571    1.0000 </r>
       <r>   -1.4705    1.0000 </r>
       <r>    2.6337    1.0000 </r>
       <r>    3.0469    1.0000 </r>
       <r>   14.4617    0.0000 </r>
       <r>   15.9902    0.0000 </r>
       <r>   25.4433    0.0000 </r>
       <r>   25.5271    0.0000 </r>
      </set>
      <set comment="kpoint 61">
       <r>   -4.4359    1.0000 </r>
       <r>   -2.4596    1.0000 </r>
       <r>    1.6328    1.0000 </r>
       <r>    3.1263    1.0000 </r>
       <r>   14.9682    0.0000 </r>
       <r>   16.8634    0.0000 </r>
       <r>   25.2615    0.0000 </r>
       <r>   25.6519    0.0000 </r>
      </set>
      <set comment="kpoint 62">
       <r>   -3.6603    1.0000 </r>
       <r>   -2.9702    1.0000 </r>
       <r>    0.6068    1.0000 </r>
       <r>    3.4103    1.0000 </r>
       <r>   15.2980    0.0000 </r>
       <r>   18.7778    0.0000 </r>
       <r>   24.5301    0.0000 </r>
       <r>   25.4322    0.0000 </r>
      </set>
      <set comment="kpoint 63">
       <r>   -4.6444    1.0000 </r>
       <r>   -2.5659    1.0000 </r>
       <r>    2.8639    1.0000 </r>
       <r>    2.8639    1.0000 </r>
       <r>   14.4142    0.0000 </r>
       <r>   15.1449    0.0000 </r>
       <r>   26.0366    0.0000 </r>
       <r>   26.0366    0.0000 </r>
      </set>
      <set comment="kpoint 64">
       <r>   -3.6034    1.0000 </r>
       <r>   -3.5509    1.0000 </r>
       <r>    2.4561    1.0000 </r>
       <r>    2.8910    1.0000 </r>
       <r>   14.7968    0.0000 </r>
       <r>   15.2877    0.0000 </r>
       <r>   25.9708    0.0000 </r>
       <r>   26.0780    0.0000 </r>
      </set>
      <set comment="kpoint 65">
       <r>  -11.3545    1.0000 </r>
       <r>    6.0544    1.0000 </r>
       <r>    6.6332    1.0000 </r>
       <r>    8.0427    1.0000 </r>
       <r>   15.2399    0.0000 </r>
       <r>   17.3472    0.0000 </r>
       <r>   17.3836    0.0000 </r>
       <r>   23.1326    0.0000 </r>
      </set>
      <set comment="kpoint 66">
       <r>  -10.7566    1.0000 </r>
       <r>    4.2536    1.0000 </r>
       <r>    5.8832    1.0000 </r>
       <r>    7.6154    1.0000 </r>
       <r>   15.8361    0.0000 </r>
       <r>   18.0577    0.0000 </r>
       <r>   18.2664    0.0000 </r>
       <r>   23.1749    0.0000 </r>
      </set>
      <set comment="kpoint 67">
       <r>   -9.9303    1.0000 </r>
       <r>    2.1556    1.0000 </r>
       <r>    5.4057    1.0000 </r>
       <r>    7.0423    1.0000 </r>
       <r>   16.5811    0.0000 </r>
       <r>   18.4495    0.0000 </r>
       <r>   19.0085    0.0000 </r>
       <r>   23.4057    0.0000 </r>
      </set>
      <set comment="kpoint 68">
       <r>   -8.8933    1.0000 </r>
       <r>    0.0676    1.0000 </r>
       <r>    5.1002    1.0000 </r>
       <r>    6.4653    1.0000 </r>
       <r>   17.2111    0.0000 </r>
       <r>   18.5783    0.0000 </r>
       <r>   19.4681    0.0000 </r>
       <r>   23.9738    0.0000 </r>
      </set>
      <set comment="kpoint 69">
       <r>   -7.6947    1.0000 </r>
       <r>   -1.8680    1.0000 </r>
       <r>    4.9542    1.0000 </r>
       <r>    5.9843    1.0000 </r>
       <r>   17.6298    0.0000 </r>
       <r>   18.5234    0.0000 </r>
       <r>   19.7004    0.0000 </r>
       <r>   24.7599    0.0000 </r>
      </set>
      <set comment="kpoint 70">
       <r>   -6.5595    1.0000 </r>
       <r>   -3.3812    1.0000 </r>
       <r>    4.9251    1.0000 </r>
       <r>    5.6896    1.0000 </r>
       <r>   17.8582    0.0000 </r>
       <r>   18.4122    0.0000 </r>
       <r>   19.7955    0.0000 </r>
       <r>   25.3649    0.0000 </r>
      </set>
      <set comment="kpoint 71">
       <r>  -10.5570    1.0000 </r>
       <r>    4.6446    1.0000 </r>
       <r>    5.3834    1.0000 </r>
       <r>    6.7574    1.0000 </r>
       <r>   14.9491    0.0000 </r>
       <r>   19.0496    0.0000 </r>
       <r>   19.3329    0.0000 </r>
       <r>   22.0912    0.0000 </r>
      </set>
      <set comment="kpoint 72">
       <r>   -9.8094    1.0000 </r>
       <r>    2.9216    1.0000 </r>
       <r>    4.6967    1.0000 </r>
       <r>    6.2766    1.0000 </r>
       <r>   15.5825    0.0000 </r>
       <r>   19.5242    0.0000 </r>
       <r>   20.2576    0.0000 </r>
       <r>   21.7972    0.0000 </r>
      </set>
      <set comment="kpoint 73">
       <r>   -8.8457    1.0000 </r>
       <r>    0.9512    1.0000 </r>
       <r>    4.3107    1.0000 </r>
       <r>    5.6954    1.0000 </r>
       <r>   16.3227    0.0000 </r>
       <r>   19.6963    0.0000 </r>
       <r>   20.8500    0.0000 </r>
       <r>   22.0951    0.0000 </r>
      </set>
      <set comment="kpoint 74">
       <r>   -7.7001    1.0000 </r>
       <r>   -0.9698    1.0000 </r>
       <r>    4.0553    1.0000 </r>
       <r>    5.2019    1.0000 </r>
       <r>   16.8866    0.0000 </r>
       <r>   19.6357    0.0000 </r>
       <r>   21.1643    0.0000 </r>
       <r>   23.0052    0.0000 </r>
      </set>
      <set comment="kpoint 75">
       <r>   -6.5006    1.0000 </r>
       <r>   -2.6313    1.0000 </r>
       <r>    3.8252    1.0000 </r>
       <r>    4.9765    1.0000 </r>
       <r>   17.2697    0.0000 </r>
       <r>   19.4340    0.0000 </r>
       <r>   21.3070    0.0000 </r>
       <r>   24.1926    0.0000 </r>
      </set>
      <set comment="kpoint 76">
       <r>   -5.9754    1.0000 </r>
       <r>   -3.2693    1.0000 </r>
       <r>    3.5912    1.0000 </r>
       <r>    5.0878    1.0000 </r>
       <r>   17.5963    0.0000 </r>
       <r>   19.1370    0.0000 </r>
       <r>   21.3058    0.0000 </r>
       <r>   24.9753    0.0000 </r>
      </set>
      <set comment="kpoint 77">
       <r>   -6.8937    1.0000 </r>
       <r>   -2.1065    1.0000 </r>
       <r>    3.4438    1.0000 </r>
       <r>    5.4558    1.0000 </r>
       <r>   17.9202    0.0000 </r>
       <r>   18.7472    0.0000 </r>
       <r>   21.1825    0.0000 </r>
       <r>   24.5994    0.0000 </r>
      </set>
      <set comment="kpoint 78">
       <r>   -8.1034    1.0000 </r>
       <r>   -0.3134    1.0000 </r>
       <r>    3.4577    1.0000 </r>
       <r>    5.9915    1.0000 </r>
       <r>   17.9847    0.0000 </r>
       <r>   18.4293    0.0000 </r>
       <r>   20.9056    0.0000 </r>
       <r>   23.6437    0.0000 </r>
      </set>
      <set comment="kpoint 79">
       <r>   -9.1930    1.0000 </r>
       <r>    1.6323    1.0000 </r>
       <r>    3.6885    1.0000 </r>
       <r>    6.6120    1.0000 </r>
       <r>   17.2912    0.0000 </r>
       <r>   18.5418    0.0000 </r>
       <r>   20.3296    0.0000 </r>
       <r>   22.9711    0.0000 </r>
      </set>
      <set comment="kpoint 80">
       <r>  -10.0856    1.0000 </r>
       <r>    3.3558    1.0000 </r>
       <r>    4.3605    1.0000 </r>
       <r>    7.2047    1.0000 </r>
       <r>   16.4543    0.0000 </r>
       <r>   18.4651    0.0000 </r>
       <r>   19.3686    0.0000 </r>
       <r>   22.9041    0.0000 </r>
      </set>
      <set comment="kpoint 81">
       <r>   -9.4539    1.0000 </r>
       <r>    3.1943    1.0000 </r>
       <r>    4.2728    1.0000 </r>
       <r>    5.2304    1.0000 </r>
       <r>   14.6945    0.0000 </r>
       <r>   20.2093    0.0000 </r>
       <r>   20.8978    0.0000 </r>
       <r>   21.4202    0.0000 </r>
      </set>
      <set comment="kpoint 82">
       <r>   -8.5677    1.0000 </r>
       <r>    1.6523    1.0000 </r>
       <r>    3.6111    1.0000 </r>
       <r>    4.7288    1.0000 </r>
       <r>   15.3795    0.0000 </r>
       <r>   19.9715    0.0000 </r>
       <r>   21.1907    0.0000 </r>
       <r>   22.3116    0.0000 </r>
      </set>
      <set comment="kpoint 83">
       <r>   -7.4879    1.0000 </r>
       <r>   -0.0877    1.0000 </r>
       <r>    3.1227    1.0000 </r>
       <r>    4.2943    1.0000 </r>
       <r>   16.0817    0.0000 </r>
       <r>   20.4822    0.0000 </r>
       <r>   21.2354    0.0000 </r>
       <r>   22.8645    0.0000 </r>
      </set>
      <set comment="kpoint 84">
       <r>   -6.2939    1.0000 </r>
       <r>   -1.7382    1.0000 </r>
       <r>    2.6147    1.0000 </r>
       <r>    4.1693    1.0000 </r>
       <r>   16.5602    0.0000 </r>
       <r>   20.9569    0.0000 </r>
       <r>   21.8064    0.0000 </r>
       <r>   23.1705    0.0000 </r>
      </set>
      <set comment="kpoint 85">
       <r>   -5.4076    1.0000 </r>
       <r>   -2.8003    1.0000 </r>
       <r>    2.1523    1.0000 </r>
       <r>    4.3494    1.0000 </r>
       <r>   16.9459    0.0000 </r>
       <r>   20.6416    0.0000 </r>
       <r>   22.6899    0.0000 </r>
       <r>   23.8310    0.0000 </r>
      </set>
      <set comment="kpoint 86">
       <r>   -5.9461    1.0000 </r>
       <r>   -2.1328    1.0000 </r>
       <r>    1.8393    1.0000 </r>
       <r>    4.7577    1.0000 </r>
       <r>   17.3701    0.0000 </r>
       <r>   20.1174    0.0000 </r>
       <r>   22.6707    0.0000 </r>
       <r>   24.4040    0.0000 </r>
      </set>
      <set comment="kpoint 87">
       <r>   -7.1208    1.0000 </r>
       <r>   -0.5600    1.0000 </r>
       <r>    1.7608    1.0000 </r>
       <r>    5.3292    1.0000 </r>
       <r>   17.8463    0.0000 </r>
       <r>   19.3384    0.0000 </r>
       <r>   22.4263    0.0000 </r>
       <r>   23.5511    0.0000 </r>
      </set>
      <set comment="kpoint 88">
       <r>   -8.2446    1.0000 </r>
       <r>    0.9358    1.0000 </r>
       <r>    2.2007    1.0000 </r>
       <r>    5.9864    1.0000 </r>
       <r>   18.2897    0.0000 </r>
       <r>   18.3223    0.0000 </r>
       <r>   21.6737    0.0000 </r>
       <r>   22.8592    0.0000 </r>
      </set>
      <set comment="kpoint 89">
       <r>   -8.0622    1.0000 </r>
       <r>    1.5337    1.0000 </r>
       <r>    3.3990    1.0000 </r>
       <r>    3.8988    1.0000 </r>
       <r>   14.5762    0.0000 </r>
       <r>   18.3468    0.0000 </r>
       <r>   22.7427    0.0000 </r>
       <r>   23.4020    0.0000 </r>
      </set>
      <set comment="kpoint 90">
       <r>   -7.0557    1.0000 </r>
       <r>    0.2585    1.0000 </r>
       <r>    2.6039    1.0000 </r>
       <r>    3.5240    1.0000 </r>
       <r>   15.3139    0.0000 </r>
       <r>   18.4015    0.0000 </r>
       <r>   22.8822    0.0000 </r>
       <r>   24.1244    0.0000 </r>
      </set>
      <set comment="kpoint 91">
       <r>   -5.9024    1.0000 </r>
       <r>   -1.0964    1.0000 </r>
       <r>    1.7200    1.0000 </r>
       <r>    3.4529    1.0000 </r>
       <r>   15.9181    0.0000 </r>
       <r>   19.4518    0.0000 </r>
       <r>   22.7616    0.0000 </r>
       <r>   24.3964    0.0000 </r>
      </set>
      <set comment="kpoint 92">
       <r>   -4.8410    1.0000 </r>
       <r>   -2.2334    1.0000 </r>
       <r>    0.9619    1.0000 </r>
       <r>    3.6517    1.0000 </r>
       <r>   16.3258    0.0000 </r>
       <r>   21.2363    0.0000 </r>
       <r>   22.4121    0.0000 </r>
       <r>   24.3015    0.0000 </r>
      </set>
      <set comment="kpoint 93">
       <r>   -4.9262    1.0000 </r>
       <r>   -2.0802    1.0000 </r>
       <r>    0.4777    1.0000 </r>
       <r>    4.0667    1.0000 </r>
       <r>   16.7597    0.0000 </r>
       <r>   21.7177    0.0000 </r>
       <r>   23.0944    0.0000 </r>
       <r>   24.0087    0.0000 </r>
      </set>
      <set comment="kpoint 94">
       <r>   -5.9977    1.0000 </r>
       <r>   -1.0218    1.0000 </r>
       <r>    0.5556    1.0000 </r>
       <r>    4.6491    1.0000 </r>
       <r>   17.2848    0.0000 </r>
       <r>   20.6585    0.0000 </r>
       <r>   23.5480    0.0000 </r>
       <r>   23.7205    0.0000 </r>
      </set>
      <set comment="kpoint 95">
       <r>   -6.4078    1.0000 </r>
       <r>   -0.4222    1.0000 </r>
       <r>    2.8103    1.0000 </r>
       <r>    3.0314    1.0000 </r>
       <r>   14.6709    0.0000 </r>
       <r>   16.8395    0.0000 </r>
       <r>   24.4078    0.0000 </r>
       <r>   25.0158    0.0000 </r>
      </set>
      <set comment="kpoint 96">
       <r>   -5.3139    1.0000 </r>
       <r>   -1.4735    1.0000 </r>
       <r>    1.8780    1.0000 </r>
       <r>    2.9094    1.0000 </r>
       <r>   15.4132    0.0000 </r>
       <r>   17.2780    0.0000 </r>
       <r>   24.3954    0.0000 </r>
       <r>   25.3289    0.0000 </r>
      </set>
      <set comment="kpoint 97">
       <r>   -4.1999    1.0000 </r>
       <r>   -2.3915    1.0000 </r>
       <r>    0.7952    1.0000 </r>
       <r>    3.0928    1.0000 </r>
       <r>   15.8428    0.0000 </r>
       <r>   18.8948    0.0000 </r>
       <r>   24.0482    0.0000 </r>
       <r>   25.0855    0.0000 </r>
      </set>
      <set comment="kpoint 98">
       <r>   -4.0174    1.0000 </r>
       <r>   -2.4485    1.0000 </r>
       <r>    0.0922    1.0000 </r>
       <r>    3.4913    1.0000 </r>
       <r>   16.2410    0.0000 </r>
       <r>   21.0623    0.0000 </r>
       <r>   23.1652    0.0000 </r>
       <r>   24.5855    0.0000 </r>
      </set>
      <set comment="kpoint 99">
       <r>   -4.5323    1.0000 </r>
       <r>   -2.5015    1.0000 </r>
       <r>    2.5358    1.0000 </r>
       <r>    2.5985    1.0000 </r>
       <r>   15.0421    0.0000 </r>
       <r>   15.7476    0.0000 </r>
       <r>   25.5899    0.0000 </r>
       <r>   25.8529    0.0000 </r>
      </set>
      <set comment="kpoint 100">
       <r>   -3.5031    1.0000 </r>
       <r>   -3.3137    1.0000 </r>
       <r>    1.6375    1.0000 </r>
       <r>    2.7233    1.0000 </r>
       <r>   15.5334    0.0000 </r>
       <r>   16.8123    0.0000 </r>
       <r>   25.2373    0.0000 </r>
       <r>   25.5517    0.0000 </r>
      </set>
      <set comment="kpoint 101">
       <r>   -8.9954    1.0000 </r>
       <r>    2.0751    1.0000 </r>
       <r>    3.2980    1.0000 </r>
       <r>    5.7778    1.0000 </r>
       <r>   16.3120    0.0000 </r>
       <r>   19.6590    0.0000 </r>
       <r>   21.4063    0.0000 </r>
       <r>   21.4687    0.0000 </r>
      </set>
      <set comment="kpoint 102">
       <r>   -7.9767    1.0000 </r>
       <r>    0.5206    1.0000 </r>
       <r>    2.7027    1.0000 </r>
       <r>    5.1565    1.0000 </r>
       <r>   17.2080    0.0000 </r>
       <r>   19.4865    0.0000 </r>
       <r>   21.5742    0.0000 </r>
       <r>   22.4880    0.0000 </r>
      </set>
      <set comment="kpoint 103">
       <r>   -6.8046    1.0000 </r>
       <r>   -1.2151    1.0000 </r>
       <r>    2.5308    1.0000 </r>
       <r>    4.5966    1.0000 </r>
       <r>   17.8518    0.0000 </r>
       <r>   19.2541    0.0000 </r>
       <r>   22.1812    0.0000 </r>
       <r>   23.3368    0.0000 </r>
      </set>
      <set comment="kpoint 104">
       <r>   -5.7028    1.0000 </r>
       <r>   -2.6287    1.0000 </r>
       <r>    2.5025    1.0000 </r>
       <r>    4.2554    1.0000 </r>
       <r>   18.1249    0.0000 </r>
       <r>   19.1170    0.0000 </r>
       <r>   22.6631    0.0000 </r>
       <r>   24.1511    0.0000 </r>
      </set>
      <set comment="kpoint 105">
       <r>   -7.6260    1.0000 </r>
       <r>    0.8075    1.0000 </r>
       <r>    2.4741    1.0000 </r>
       <r>    4.1636    1.0000 </r>
       <r>   16.2402    0.0000 </r>
       <r>   19.6687    0.0000 </r>
       <r>   21.2265    0.0000 </r>
       <r>   23.4662    0.0000 </r>
      </set>
      <set comment="kpoint 106">
       <r>   -6.5124    1.0000 </r>
       <r>   -0.4949    1.0000 </r>
       <r>    1.8737    1.0000 </r>
       <r>    3.5959    1.0000 </r>
       <r>   17.1601    0.0000 </r>
       <r>   20.0150    0.0000 </r>
       <r>   21.1777    0.0000 </r>
       <r>   24.1477    0.0000 </r>
      </set>
      <set comment="kpoint 107">
       <r>   -5.3556    1.0000 </r>
       <r>   -1.8698    1.0000 </r>
       <r>    1.5201    1.0000 </r>
       <r>    3.3133    1.0000 </r>
       <r>   17.7078    0.0000 </r>
       <r>   20.4425    0.0000 </r>
       <r>   21.8044    0.0000 </r>
       <r>   24.1927    0.0000 </r>
      </set>
      <set comment="kpoint 108">
       <r>   -4.8676    1.0000 </r>
       <r>   -2.4024    1.0000 </r>
       <r>    1.2294    1.0000 </r>
       <r>    3.4260    1.0000 </r>
       <r>   18.0898    0.0000 </r>
       <r>   20.1673    0.0000 </r>
       <r>   23.1839    0.0000 </r>
       <r>   23.5968    0.0000 </r>
      </set>
      <set comment="kpoint 109">
       <r>   -5.7583    1.0000 </r>
       <r>   -1.3646    1.0000 </r>
       <r>    1.0947    1.0000 </r>
       <r>    3.8553    1.0000 </r>
       <r>   18.5117    0.0000 </r>
       <r>   19.5314    0.0000 </r>
       <r>   22.4756    0.0000 </r>
       <r>   24.0517    0.0000 </r>
      </set>
      <set comment="kpoint 110">
       <r>   -6.9219    1.0000 </r>
       <r>   -0.1088    1.0000 </r>
       <r>    1.4348    1.0000 </r>
       <r>    4.4787    1.0000 </r>
       <r>   18.4274    0.0000 </r>
       <r>   19.0287    0.0000 </r>
       <r>   21.7966    0.0000 </r>
       <r>   23.5871    0.0000 </r>
      </set>
      <set comment="kpoint 111">
       <r>   -6.0131    1.0000 </r>
       <r>   -0.6331    1.0000 </r>
       <r>    1.9500    1.0000 </r>
       <r>    2.8124    1.0000 </r>
       <r>   16.3448    0.0000 </r>
       <r>   18.3352    0.0000 </r>
       <r>   22.7766    0.0000 </r>
       <r>   24.9024    0.0000 </r>
      </set>
      <set comment="kpoint 112">
       <r>   -4.8691    1.0000 </r>
       <r>   -1.6350    1.0000 </r>
       <r>    1.1883    1.0000 </r>
       <r>    2.5104    1.0000 </r>
       <r>   17.2007    0.0000 </r>
       <r>   19.2822    0.0000 </r>
       <r>   22.5253    0.0000 </r>
       <r>   24.7816    0.0000 </r>
      </set>
      <set comment="kpoint 113">
       <r>   -4.0613    1.0000 </r>
       <r>   -2.3271    1.0000 </r>
       <r>    0.4857    1.0000 </r>
       <r>    2.6983    1.0000 </r>
       <r>   17.6233    0.0000 </r>
       <r>   21.1100    0.0000 </r>
       <r>   22.1539    0.0000 </r>
       <r>   23.8357    0.0000 </r>
      </set>
      <set comment="kpoint 114">
       <r>   -4.6666    1.0000 </r>
       <r>   -1.7924    1.0000 </r>
       <r>    0.2900    1.0000 </r>
       <r>    3.1817    1.0000 </r>
       <r>   18.0514    0.0000 </r>
       <r>   21.0054    0.0000 </r>
       <r>   22.8922    0.0000 </r>
       <r>   23.2311    0.0000 </r>
      </set>
      <set comment="kpoint 115">
       <r>   -4.2195    1.0000 </r>
       <r>   -2.3610    1.0000 </r>
       <r>    1.7769    1.0000 </r>
       <r>    2.0264    1.0000 </r>
       <r>   16.6944    0.0000 </r>
       <r>   17.3433    0.0000 </r>
       <r>   24.2405    0.0000 </r>
       <r>   25.1621    0.0000 </r>
      </set>
      <set comment="kpoint 116">
       <r>   -3.3761    1.0000 </r>
       <r>   -2.9303    1.0000 </r>
       <r>    0.8850    1.0000 </r>
       <r>    2.1771    1.0000 </r>
       <r>   17.2486    0.0000 </r>
       <r>   18.9578    0.0000 </r>
       <r>   23.7241    0.0000 </r>
       <r>   24.2161    0.0000 </r>
      </set>
      <set comment="kpoint 117">
       <r>   -5.3997    1.0000 </r>
       <r>   -1.1229    1.0000 </r>
       <r>    1.0041    1.0000 </r>
       <r>    2.8606    1.0000 </r>
       <r>   18.5961    0.0000 </r>
       <r>   19.7948    0.0000 </r>
       <r>   21.2098    0.0000 </r>
       <r>   24.4821    0.0000 </r>
      </set>
      <set comment="kpoint 118">
       <r>   -4.3492    1.0000 </r>
       <r>   -2.0247    1.0000 </r>
       <r>    0.7148    1.0000 </r>
       <r>    2.3857    1.0000 </r>
       <r>   19.2688    0.0000 </r>
       <r>   20.0868    0.0000 </r>
       <r>   21.9111    0.0000 </r>
       <r>   23.4528    0.0000 </r>
      </set>
      <set comment="kpoint 119">
       <r>   -3.7937    1.0000 </r>
       <r>   -2.3113    1.0000 </r>
       <r>    1.0099    1.0000 </r>
       <r>    1.6061    1.0000 </r>
       <r>   18.9298    0.0000 </r>
       <r>   19.4433    0.0000 </r>
       <r>   22.2470    0.0000 </r>
       <r>   23.6931    0.0000 </r>
      </set>
      <set comment="kpoint 120">
       <r>   -3.4463    1.0000 </r>
       <r>   -2.5266    1.0000 </r>
       <r>    0.6272    1.0000 </r>
       <r>    1.6806    1.0000 </r>
       <r>   19.4261    0.0000 </r>
       <r>   20.9213    0.0000 </r>
       <r>   21.9563    0.0000 </r>
       <r>   22.2347    0.0000 </r>
      </set>
     </set>
    </set>
   </array>
  </eigenvalues>
  <separator name="orbital magnetization" >
   <v name="MAGDIPOLOUT">      0.00000000      0.00000000      0.00000000</v>
  </separator>
  <dos>
   <i name="efermi">      9.20692453 </i>
   <total>
    <array>
     <dimension dim="1">gridpoints</dimension>
     <dimension dim="2">spin</dimension>
     <field>energy</field>
     <field>total</field>
     <field>integrated</field>
     <set>
      <set comment="spin 1">
       <r>   -14.0713     0.0000     0.0000 </r>
       <r>   -13.9311     0.0000     0.0000 </r>
       <r>   -13.7909     0.0000     0.0000 </r>
       <r>   -13.6507     0.0000     0.0000 </r>
       <r>   -13.5105     0.0000     0.0000 </r>
       <r>   -13.3703     0.0000     0.0000 </r>
       <r>   -13.2300     0.0000     0.0000 </r>
       <r>   -13.0898     0.0000     0.0000 </r>
       <r>   -12.9496     0.0000     0.0000 </r>
       <r>   -12.8094     0.0000     0.0000 </r>
       <r>   -12.6692     0.0000     0.0000 </r>
       <r>   -12.5290     0.0000     0.0000 </r>
       <r>   -12.3888     0.0000     0.0000 </r>
       <r>   -12.2486     0.0000     0.0000 </r>
       <r>   -12.1084     0.0047     0.0007 </r>
       <r>   -11.9682     0.0528     0.0081 </r>
       <r>   -11.8280     0.0362     0.0131 </r>
       <r>   -11.6878     0.1125     0.0289 </r>
       <r>   -11.5476     0.0476     0.0356 </r>
       <r>   -11.4074     0.0643     0.0446 </r>
       <r>   -11.2672     0.1608     0.0672 </r>
       <r>   -11.1270     0.1066     0.0821 </r>
       <r>   -10.9868     0.1279     0.1000 </r>
       <r>   -10.8466     0.0424     0.1060 </r>
       <r>   -10.7064     0.2749     0.1445 </r>
       <r>   -10.5662     0.1042     0.1591 </r>
       <r>   -10.4260     0.1518     0.1804 </r>
       <r>   -10.2858     0.1165     0.1967 </r>
       <r>   -10.1456     0.0881     0.2091 </r>
       <r>   -10.0054     0.2480     0.2439 </r>
       <r>    -9.8652     0.2140     0.2739 </r>
       <r>    -9.7250     0.2888     0.3144 </r>
       <r>    -9.5848     0.0221     0.3175 </r>
       <r>    -9.4445     0.2386     0.3509 </r>
       <r>    -9.3043     0.1464     0.3714 </r>
       <r>    -9.1641     0.3112     0.4151 </r>
       <r>    -9.0239     0.1252     0.4326 </r>
       <r>    -8.8837     0.2653     0.4698 </r>
       <r>    -8.7435     0.3407     0.5176 </r>
       <r>    -8.6033     0.1145     0.5336 </r>
       <r>    -8.4631     0.1755     0.5582 </r>
       <r>    -8.3229     0.1556     0.5801 </r>
       <r>    -8.1827     0.3647     0.6312 </r>
       <r>    -8.0425     0.2998     0.6732 </r>
       <r>    -7.9023     0.4134     0.7312 </r>
       <r>    -7.7621     0.0524     0.7385 </r>
       <r>    -7.6219     0.4406     0.8003 </r>
       <r>    -7.4817     0.2202     0.8312 </r>
       <r>    -7.3415     0.1822     0.8567 </r>
       <r>    -7.2013     0.1284     0.8747 </r>
       <r>    -7.0611     0.6138     0.9608 </r>
       <r>    -6.9209     0.2738     0.9992 </r>
       <r>    -6.7807     0.5219     1.0723 </r>
       <r>    -6.6405     0.1272     1.0902 </r>
       <r>    -6.5003     0.5357     1.1653 </r>
       <r>    -6.3601     0.2968     1.2069 </r>
       <r>    -6.2199     0.3841     1.2607 </r>
       <r>    -6.0797     0.0556     1.2685 </r>
       <r>    -5.9395     0.7658     1.3759 </r>
       <r>    -5.7993     0.3431     1.4240 </r>
       <r>    -5.6590     0.3715     1.4761 </r>
       <r>    -5.5188     0.1976     1.5038 </r>
       <r>    -5.3786     0.3077     1.5469 </r>
       <r>    -5.2384     0.4138     1.6049 </r>
       <r>    -5.0982     0.1663     1.6283 </r>
       <r>    -4.9580     0.1052     1.6430 </r>
       <r>    -4.8178     0.7130     1.7430 </r>
       <r>    -4.6776     0.1261     1.7607 </r>
       <r>    -4.5374     0.1291     1.7788 </r>
       <r>    -4.3972     0.1645     1.8018 </r>
       <r>    -4.2570     0.3202     1.8467 </r>
       <r>    -4.1168     0.2918     1.8876 </r>
       <r>    -3.9766     0.2801     1.9269 </r>
       <r>    -3.8364     0.0535     1.9344 </r>
       <r>    -3.6962     0.1760     1.9591 </r>
       <r>    -3.5560     0.1799     1.9843 </r>
       <r>    -3.4158     0.3243     2.0298 </r>
       <r>    -3.2756     0.4518     2.0931 </r>
       <r>    -3.1354     0.1896     2.1197 </r>
       <r>    -2.9952     0.0580     2.1278 </r>
       <r>    -2.8550     0.3349     2.1748 </r>
       <r>    -2.7148     0.3109     2.2184 </r>
       <r>    -2.5746     0.5437     2.2946 </r>
       <r>    -2.4344     0.5249     2.3682 </r>
       <r>    -2.2942     0.9191     2.4971 </r>
       <r>    -2.1540     0.3489     2.5460 </r>
       <r>    -2.0138     0.7767     2.6549 </r>
       <r>    -1.8735     0.2740     2.6933 </r>
       <r>    -1.7333     0.5217     2.7664 </r>
       <r>    -1.5931     0.3339     2.8132 </r>
       <r>    -1.4529     0.3580     2.8634 </r>
       <r>    -1.3127     0.5609     2.9421 </r>
       <r>    -1.1725     0.2476     2.9768 </r>
       <r>    -1.0323     0.4181     3.0354 </r>
       <r>    -0.8921     0.2624     3.0722 </r>
       <r>    -0.7519     0.0508     3.0793 </r>
       <r>    -0.6117     0.2147     3.1094 </r>
       <r>    -0.4715     0.6035     3.1940 </r>
       <r>    -0.3313     0.2331     3.2267 </r>
       <r>    -0.1911     0.1485     3.2475 </r>
       <r>    -0.0509     0.3470     3.2962 </r>
       <r>     0.0893     0.2803     3.3355 </r>
       <r>     0.2295     0.1636     3.3584 </r>
       <r>     0.3697     0.4062     3.4154 </r>
       <r>     0.5099     0.5532     3.4929 </r>
       <r>     0.6501     0.5657     3.5722 </r>
       <r>     0.7903     0.4342     3.6331 </r>
       <r>     0.9305     0.5209     3.7061 </r>
       <r>     1.0707     0.8150     3.8204 </r>
       <r>     1.2109     0.4864     3.8886 </r>
       <r>     1.3511     0.3872     3.9429 </r>
       <r>     1.4913     0.2453     3.9773 </r>
       <r>     1.6315     0.6377     4.0667 </r>
       <r>     1.7717     0.8595     4.1872 </r>
       <r>     1.9120     0.8062     4.3002 </r>
       <r>     2.0522     0.2940     4.3414 </r>
       <r>     2.1924     0.6666     4.4349 </r>
       <r>     2.3326     0.2971     4.4765 </r>
       <r>     2.4728     0.3657     4.5278 </r>
       <r>     2.6130     1.2742     4.7065 </r>
       <r>     2.7532     0.9457     4.8391 </r>
       <r>     2.8934     0.7110     4.9387 </r>
       <r>     3.0336     0.5011     5.0090 </r>
       <r>     3.1738     0.7909     5.1199 </r>
       <r>     3.3140     0.5116     5.1916 </r>
       <r>     3.4542     1.0452     5.3382 </r>
       <r>     3.5944     1.2854     5.5184 </r>
       <r>     3.7346     0.8426     5.6365 </r>
       <r>     3.8748     0.4918     5.7055 </r>
       <r>     4.0150     0.3984     5.7613 </r>
       <r>     4.1552     0.6981     5.8592 </r>
       <r>     4.2954     1.1545     6.0211 </r>
       <r>     4.4356     0.9584     6.1554 </r>
       <r>     4.5758     0.3777     6.2084 </r>
       <r>     4.7160     0.8768     6.3313 </r>
       <r>     4.8562     0.6197     6.4182 </r>
       <r>     4.9964     0.8393     6.5359 </r>
       <r>     5.1366     0.7050     6.6347 </r>
       <r>     5.2768     0.6391     6.7243 </r>
       <r>     5.4170     0.6857     6.8205 </r>
[...]
       </set>
       <set comment="band 5">
        <r>  0.0413  0.0104  0.2159  0.0183  0.0000  0.0000  0.0000  0.0000  0.0000 </r>
        <r>  0.0413  0.0104  0.2159  0.0183  0.0000  0.0000  0.0000  0.0000  0.0000 </r>
       </set>
       <set comment="band 6">
        <r>  0.0413  0.0718  0.0510  0.0847  0.0000  0.0000  0.0000  0.0000  0.0000 </r>
        <r>  0.0413  0.0718  0.0510  0.0847  0.0000  0.0000  0.0000  0.0000  0.0000 </r>
       </set>
       <set comment="band 7">
        <r>  0.1432  0.0839  0.0020  0.0624  0.0000  0.0000  0.0000  0.0000  0.0000 </r>
        <r>  0.1432  0.0839  0.0020  0.0624  0.0000  0.0000  0.0000  0.0000  0.0000 </r>
       </set>
       <set comment="band 8">
        <r>  0.0305  0.1133  0.0766  0.1582  0.0000  0.0000  0.0000  0.0000  0.0000 </r>
        <r>  0.0305  0.1133  0.0766  0.1582  0.0000  0.0000  0.0000  0.0000  0.0000 </r>
       </set>
      </set>
      <set comment="kpoint 111">
       <set comment="band 1">
        <r>  0.2406  0.0136  0.0036  0.0604  0.0000  0.0000  0.0000  0.0000  0.0000 </r>
        <r>  0.2406  0.0136  0.0036  0.0604  0.0000  0.0000  0.0000  0.0000  0.0000 </r>
       </set>
       <set comment="band 2">
        <r>  0.1950  0.0343  0.0221  0.0996  0.0000  0.0000  0.0000  0.0000  0.0000 </r>
        <r>  0.1950  0.0343  0.0221  0.0996  0.0000  0.0000  0.0000  0.0000  0.0000 </r>
       </set>
       <set comment="band 3">
        <r>  0.0170  0.0695  0.1398  0.0865  0.0000  0.0000  0.0000  0.0000  0.0000 </r>
        <r>  0.0170  0.0695  0.1398  0.0865  0.0000  0.0000  0.0000  0.0000  0.0000 </r>
       </set>
       <set comment="band 4">
        <r>  0.0012  0.1680  0.1298  0.0171  0.0000  0.0000  0.0000  0.0000  0.0000 </r>
        <r>  0.0012  0.1680  0.1298  0.0171  0.0000  0.0000  0.0000  0.0000  0.0000 </r>
       </set>
       <set comment="band 5">
        <r>  0.0792  0.0972  0.0326  0.0291  0.0000  0.0000  0.0000  0.0000  0.0000 </r>
        <r>  0.0792  0.0972  0.0326  0.0291  0.0000  0.0000  0.0000  0.0000  0.0000 </r>
       </set>
       <set comment="band 6">
        <r>  0.0864  0.0018  0.0299  0.0751  0.0000  0.0000  0.0000  0.0000  0.0000 </r>
        <r>  0.0864  0.0018  0.0299  0.0751  0.0000  0.0000  0.0000  0.0000  0.0000 </r>
       </set>
       <set comment="band 7">
        <r>  0.0555  0.1292  0.1374  0.0259  0.0000  0.0000  0.0000  0.0000  0.0000 </r>
        <r>  0.0555  0.1292  0.1374  0.0259  0.0000  0.0000  0.0000  0.0000  0.0000 </r>
       </set>
       <set comment="band 8">
        <r>  0.0137  0.1227  0.1939  0.0718  0.0000  0.0000  0.0000  0.0000  0.0000 </r>
        <r>  0.0137  0.1227  0.1939  0.0718  0.0000  0.0000  0.0000  0.0000  0.0000 </r>
       </set>
      </set>
      <set comment="kpoint 112">
       <set comment="band 1">
        <r>  0.2407  0.0169  0.0042  0.0662  0.0000  0.0000  0.0000  0.0000  0.0000 </r>
        <r>  0.2407  0.0169  0.0042  0.0662  0.0000  0.0000  0.0000  0.0000  0.0000 </r>
       </set>
       <set comment="band 2">
        <r>  0.2047  0.0288  0.0083  0.1037  0.0000  0.0000  0.0000  0.0000  0.0000 </r>
        <r>  0.2047  0.0288  0.0083  0.1037  0.0000  0.0000  0.0000  0.0000  0.0000 </r>
       </set>
       <set comment="band 3">
        <r>  0.0176  0.1735  0.0318  0.0768  0.0000  0.0000  0.0000  0.0000  0.0000 </r>
        <r>  0.0176  0.1735  0.0318  0.0768  0.0000  0.0000  0.0000  0.0000  0.0000 </r>
       </set>
       <set comment="band 4">
        <r>  0.0026  0.0508  0.2523  0.0078  0.0000  0.0000  0.0000  0.0000  0.0000 </r>
        <r>  0.0026  0.0508  0.2523  0.0078  0.0000  0.0000  0.0000  0.0000  0.0000 </r>
       </set>
       <set comment="band 5">
        <r>  0.0764  0.0784  0.0502  0.0228  0.0000  0.0000  0.0000  0.0000  0.0000 </r>
        <r>  0.0764  0.0784  0.0502  0.0228  0.0000  0.0000  0.0000  0.0000  0.0000 </r>
       </set>
       <set comment="band 6">
        <r>  0.0650  0.0481  0.0176  0.0936  0.0000  0.0000  0.0000  0.0000  0.0000 </r>
        <r>  0.0650  0.0481  0.0176  0.0936  0.0000  0.0000  0.0000  0.0000  0.0000 </r>
       </set>
       <set comment="band 7">
        <r>  0.0690  0.1051  0.1523  0.0150  0.0000  0.0000  0.0000  0.0000  0.0000 </r>
        <r>  0.0690  0.1051  0.1523  0.0150  0.0000  0.0000  0.0000  0.0000  0.0000 </r>
       </set>
       <set comment="band 8">
        <r>  0.0319  0.1165  0.1584  0.0873  0.0000  0.0000  0.0000  0.0000  0.0000 </r>
        <r>  0.0319  0.1165  0.1584  0.0873  0.0000  0.0000  0.0000  0.0000  0.0000 </r>
       </set>
      </set>
      <set comment="kpoint 113">
       <set comment="band 1">
        <r>  0.2571  0.0341  0.0065  0.0439  0.0000  0.0000  0.0000  0.0000  0.0000 </r>
        <r>  0.2571  0.0341  0.0065  0.0439  0.0000  0.0000  0.0000  0.0000  0.0000 </r>
       </set>
       <set comment="band 2">
        <r>  0.1932  0.0214  0.0028  0.1168  0.0000  0.0000  0.0000  0.0000  0.0000 </r>
        <r>  0.1932  0.0214  0.0028  0.1168  0.0000  0.0000  0.0000  0.0000  0.0000 </r>
       </set>
       <set comment="band 3">
        <r>  0.0147  0.1872  0.0060  0.0804  0.0000  0.0000  0.0000  0.0000  0.0000 </r>
        <r>  0.0147  0.1872  0.0060  0.0804  0.0000  0.0000  0.0000  0.0000  0.0000 </r>
       </set>
       <set comment="band 4">
        <r>  0.0059  0.0165  0.2840  0.0107  0.0000  0.0000  0.0000  0.0000  0.0000 </r>
        <r>  0.0059  0.0165  0.2840  0.0107  0.0000  0.0000  0.0000  0.0000  0.0000 </r>
       </set>
       <set comment="band 5">
        <r>  0.0707  0.0551  0.0540  0.0413  0.0000  0.0000  0.0000  0.0000  0.0000 </r>
        <r>  0.0707  0.0551  0.0540  0.0413  0.0000  0.0000  0.0000  0.0000  0.0000 </r>
       </set>
       <set comment="band 6">
        <r>  0.0296  0.0838  0.0587  0.0804  0.0000  0.0000  0.0000  0.0000  0.0000 </r>
        <r>  0.0296  0.0838  0.0587  0.0804  0.0000  0.0000  0.0000  0.0000  0.0000 </r>
       </set>
       <set comment="band 7">
        <r>  0.0828  0.0788  0.1603  0.0263  0.0000  0.0000  0.0000  0.0000  0.0000 </r>
        <r>  0.0828  0.0788  0.1603  0.0263  0.0000  0.0000  0.0000  0.0000  0.0000 </r>
       </set>
       <set comment="band 8">
        <r>  0.0677  0.1172  0.0672  0.1069  0.0000  0.0000  0.0000  0.0000  0.0000 </r>
        <r>  0.0677  0.1172  0.0672  0.1069  0.0000  0.0000  0.0000  0.0000  0.0000 </r>
       </set>
      </set>
      <set comment="kpoint 114">
       <set comment="band 1">
        <r>  0.2543  0.0433  0.0063  0.0313  0.0000  0.0000  0.0000  0.0000  0.0000 </r>
        <r>  0.2543  0.0433  0.0063  0.0313  0.0000  0.0000  0.0000  0.0000  0.0000 </r>
       </set>
       <set comment="band 2">
        <r>  0.1937  0.0639  0.0022  0.0799  0.0000  0.0000  0.0000  0.0000  0.0000 </r>
        <r>  0.1937  0.0639  0.0022  0.0799  0.0000  0.0000  0.0000  0.0000  0.0000 </r>
       </set>
       <set comment="band 3">
        <r>  0.0136  0.1378  0.0027  0.1309  0.0000  0.0000  0.0000  0.0000  0.0000 </r>
        <r>  0.0136  0.1378  0.0027  0.1309  0.0000  0.0000  0.0000  0.0000  0.0000 </r>
       </set>
       <set comment="band 4">
        <r>  0.0075  0.0075  0.2922  0.0151  0.0000  0.0000  0.0000  0.0000  0.0000 </r>
        <r>  0.0075  0.0075  0.2922  0.0151  0.0000  0.0000  0.0000  0.0000  0.0000 </r>
       </set>
       <set comment="band 5">
        <r>  0.0614  0.0487  0.0538  0.0618  0.0000  0.0000  0.0000  0.0000  0.0000 </r>
        <r>  0.0614  0.0487  0.0538  0.0618  0.0000  0.0000  0.0000  0.0000  0.0000 </r>
       </set>
       <set comment="band 6">
        <r>  0.0260  0.0057  0.2580  0.0102  0.0000  0.0000  0.0000  0.0000  0.0000 </r>
        <r>  0.0260  0.0057  0.2580  0.0102  0.0000  0.0000  0.0000  0.0000  0.0000 </r>
       </set>
       <set comment="band 7">
        <r>  0.1087  0.1323  0.0004  0.0869  0.0000  0.0000  0.0000  0.0000  0.0000 </r>
        <r>  0.1087  0.1323  0.0004  0.0869  0.0000  0.0000  0.0000  0.0000  0.0000 </r>
       </set>
       <set comment="band 8">
        <r>  0.0617  0.1417  0.0050  0.1399  0.0000  0.0000  0.0000  0.0000  0.0000 </r>
        <r>  0.0617  0.1417  0.0050  0.1399  0.0000  0.0000  0.0000  0.0000  0.0000 </r>
       </set>
      </set>
      <set comment="kpoint 115">
       <set comment="band 1">
        <r>  0.2302  0.0237  0.0040  0.0717  0.0000  0.0000  0.0000  0.0000  0.0000 </r>
        <r>  0.2302  0.0237  0.0040  0.0717  0.0000  0.0000  0.0000  0.0000  0.0000 </r>
       </set>
       <set comment="band 2">
        <r>  0.2180  0.0418  0.0077  0.0747  0.0000  0.0000  0.0000  0.0000  0.0000 </r>
        <r>  0.2180  0.0418  0.0077  0.0747  0.0000  0.0000  0.0000  0.0000  0.0000 </r>
       </set>
       <set comment="band 3">
        <r>  0.0105  0.0678  0.1412  0.0909  0.0000  0.0000  0.0000  0.0000  0.0000 </r>
        <r>  0.0105  0.0678  0.1412  0.0909  0.0000  0.0000  0.0000  0.0000  0.0000 </r>
       </set>
       <set comment="band 4">
        <r>  0.0024  0.1449  0.1403  0.0224  0.0000  0.0000  0.0000  0.0000  0.0000 </r>
        <r>  0.0024  0.1449  0.1403  0.0224  0.0000  0.0000  0.0000  0.0000  0.0000 </r>
       </set>
       <set comment="band 5">
        <r>  0.0867  0.0837  0.0313  0.0188  0.0000  0.0000  0.0000  0.0000  0.0000 </r>
        <r>  0.0867  0.0837  0.0313  0.0188  0.0000  0.0000  0.0000  0.0000  0.0000 </r>
       </set>
       <set comment="band 6">
        <r>  0.0889  0.0034  0.0302  0.0825  0.0000  0.0000  0.0000  0.0000  0.0000 </r>
        <r>  0.0889  0.0034  0.0302  0.0825  0.0000  0.0000  0.0000  0.0000  0.0000 </r>
       </set>
       <set comment="band 7">
        <r>  0.0381  0.1470  0.1555  0.0282  0.0000  0.0000  0.0000  0.0000  0.0000 </r>
        <r>  0.0381  0.1470  0.1555  0.0282  0.0000  0.0000  0.0000  0.0000  0.0000 </r>
       </set>
       <set comment="band 8">
        <r>  0.0228  0.0955  0.1818  0.0970  0.0000  0.0000  0.0000  0.0000  0.0000 </r>
        <r>  0.0228  0.0955  0.1818  0.0970  0.0000  0.0000  0.0000  0.0000  0.0000 </r>
       </set>
      </set>
      <set comment="kpoint 116">
       <set comment="band 1">
        <r>  0.2436  0.0342  0.0080  0.0571  0.0000  0.0000  0.0000  0.0000  0.0000 </r>
        <r>  0.2436  0.0342  0.0080  0.0571  0.0000  0.0000  0.0000  0.0000  0.0000 </r>
       </set>
       <set comment="band 2">
        <r>  0.2171  0.0450  0.0024  0.0724  0.0000  0.0000  0.0000  0.0000  0.0000 </r>
        <r>  0.2171  0.0450  0.0024  0.0724  0.0000  0.0000  0.0000  0.0000  0.0000 </r>
       </set>
       <set comment="band 3">
        <r>  0.0022  0.1760  0.0002  0.1125  0.0000  0.0000  0.0000  0.0000  0.0000 </r>
        <r>  0.0022  0.1760  0.0002  0.1125  0.0000  0.0000  0.0000  0.0000  0.0000 </r>
       </set>
       <set comment="band 4">
        <r>  0.0065  0.0071  0.2850  0.0141  0.0000  0.0000  0.0000  0.0000  0.0000 </r>
        <r>  0.0065  0.0071  0.2850  0.0141  0.0000  0.0000  0.0000  0.0000  0.0000 </r>
       </set>
       <set comment="band 5">
        <r>  0.0813  0.0309  0.0549  0.0480  0.0000  0.0000  0.0000  0.0000  0.0000 </r>
        <r>  0.0813  0.0309  0.0549  0.0480  0.0000  0.0000  0.0000  0.0000  0.0000 </r>
       </set>
       <set comment="band 6">
        <r>  0.0692  0.0837  0.0100  0.0735  0.0000  0.0000  0.0000  0.0000  0.0000 </r>
        <r>  0.0692  0.0837  0.0100  0.0735  0.0000  0.0000  0.0000  0.0000  0.0000 </r>
       </set>
       <set comment="band 7">
        <r>  0.0359  0.0082  0.2994  0.0162  0.0000  0.0000  0.0000  0.0000  0.0000 </r>
        <r>  0.0359  0.0082  0.2994  0.0162  0.0000  0.0000  0.0000  0.0000  0.0000 </r>
       </set>
       <set comment="band 8">
        <r>  0.0569  0.1963  0.0000  0.1122  0.0000  0.0000  0.0000  0.0000  0.0000 </r>
        <r>  0.0569  0.1963  0.0000  0.1122  0.0000  0.0000  0.0000  0.0000  0.0000 </r>
       </set>
      </set>
      <set comment="kpoint 117">
       <set comment="band 1">
        <r>  0.2452  0.0105  0.0082  0.0613  0.0000  0.0000  0.0000  0.0000  0.0000 </r>
        <r>  0.2452  0.0105  0.0082  0.0613  0.0000  0.0000  0.0000  0.0000  0.0000 </r>
       </set>
       <set comment="band 2">
        <r>  0.1949  0.0313  0.0430  0.0782  0.0000  0.0000  0.0000  0.0000  0.0000 </r>
        <r>  0.1949  0.0313  0.0430  0.0782  0.0000  0.0000  0.0000  0.0000  0.0000 </r>
       </set>
       <set comment="band 3">
        <r>  0.0207  0.0549  0.1227  0.0994  0.0000  0.0000  0.0000  0.0000  0.0000 </r>
        <r>  0.0207  0.0549  0.1227  0.0994  0.0000  0.0000  0.0000  0.0000  0.0000 </r>
       </set>
       <set comment="band 4">
        <r>  0.0058  0.1864  0.1006  0.0210  0.0000  0.0000  0.0000  0.0000  0.0000 </r>
        <r>  0.0058  0.1864  0.1006  0.0210  0.0000  0.0000  0.0000  0.0000  0.0000 </r>
       </set>
       <set comment="band 5">
        <r>  0.0549  0.1331  0.0556  0.0229  0.0000  0.0000  0.0000  0.0000  0.0000 </r>
        <r>  0.0549  0.1331  0.0556  0.0229  0.0000  0.0000  0.0000  0.0000  0.0000 </r>
       </set>
       <set comment="band 6">
        <r>  0.0007  0.0388  0.0944  0.0657  0.0000  0.0000  0.0000  0.0000  0.0000 </r>
        <r>  0.0007  0.0388  0.0944  0.0657  0.0000  0.0000  0.0000  0.0000  0.0000 </r>
       </set>
       <set comment="band 7">
        <r>  0.1576  0.0658  0.0569  0.0579  0.0000  0.0000  0.0000  0.0000  0.0000 </r>
        <r>  0.1576  0.0658  0.0569  0.0579  0.0000  0.0000  0.0000  0.0000  0.0000 </r>
       </set>
       <set comment="band 8">
        <r>  0.0347  0.0945  0.1754  0.0898  0.0000  0.0000  0.0000  0.0000  0.0000 </r>
        <r>  0.0347  0.0945  0.1754  0.0898  0.0000  0.0000  0.0000  0.0000  0.0000 </r>
       </set>
      </set>
      <set comment="kpoint 118">
       <set comment="band 1">
        <r>  0.2530  0.0201  0.0113  0.0532  0.0000  0.0000  0.0000  0.0000  0.0000 </r>
        <r>  0.2530  0.0201  0.0113  0.0532  0.0000  0.0000  0.0000  0.0000  0.0000 </r>
       </set>
       <set comment="band 2">
        <r>  0.1919  0.0257  0.0140  0.1055  0.0000  0.0000  0.0000  0.0000  0.0000 </r>
        <r>  0.1919  0.0257  0.0140  0.1055  0.0000  0.0000  0.0000  0.0000  0.0000 </r>
       </set>
       <set comment="band 3">
        <r>  0.0258  0.1051  0.0879  0.0770  0.0000  0.0000  0.0000  0.0000  0.0000 </r>
        <r>  0.0258  0.1051  0.0879  0.0770  0.0000  0.0000  0.0000  0.0000  0.0000 </r>
       </set>
       <set comment="band 4">
        <r>  0.0032  0.1215  0.1634  0.0194  0.0000  0.0000  0.0000  0.0000  0.0000 </r>
        <r>  0.0032  0.1215  0.1634  0.0194  0.0000  0.0000  0.0000  0.0000  0.0000 </r>
       </set>
       <set comment="band 5">
        <r>  0.0230  0.0987  0.0850  0.0218  0.0000  0.0000  0.0000  0.0000  0.0000 </r>
        <r>  0.0230  0.0987  0.0850  0.0218  0.0000  0.0000  0.0000  0.0000  0.0000 </r>
       </set>
       <set comment="band 6">
        <r>  0.0575  0.0625  0.1310  0.0199  0.0000  0.0000  0.0000  0.0000  0.0000 </r>
        <r>  0.0575  0.0625  0.1310  0.0199  0.0000  0.0000  0.0000  0.0000  0.0000 </r>
       </set>
       <set comment="band 7">
        <r>  0.1127  0.0884  0.0100  0.1134  0.0000  0.0000  0.0000  0.0000  0.0000 </r>
        <r>  0.1127  0.0884  0.0100  0.1134  0.0000  0.0000  0.0000  0.0000  0.0000 </r>
       </set>
       <set comment="band 8">
        <r>  0.0601  0.0653  0.1145  0.1125  0.0000  0.0000  0.0000  0.0000  0.0000 </r>
        <r>  0.0601  0.0653  0.1145  0.1125  0.0000  0.0000  0.0000  0.0000  0.0000 </r>
       </set>
      </set>
      <set comment="kpoint 119">
       <set comment="band 1">
        <r>  0.2403  0.0226  0.0106  0.0644  0.0000  0.0000  0.0000  0.0000  0.0000 </r>
        <r>  0.2403  0.0226  0.0106  0.0644  0.0000  0.0000  0.0000  0.0000  0.0000 </r>
       </set>
       <set comment="band 2">
        <r>  0.2269  0.0360  0.0217  0.0630  0.0000  0.0000  0.0000  0.0000  0.0000 </r>
        <r>  0.2269  0.0360  0.0217  0.0630  0.0000  0.0000  0.0000  0.0000  0.0000 </r>
       </set>
       <set comment="band 3">
        <r>  0.0083  0.0494  0.1231  0.1133  0.0000  0.0000  0.0000  0.0000  0.0000 </r>
        <r>  0.0083  0.0494  0.1231  0.1133  0.0000  0.0000  0.0000  0.0000  0.0000 </r>
       </set>
       <set comment="band 4">
        <r>  0.0000  0.1624  0.1161  0.0187  0.0000  0.0000  0.0000  0.0000  0.0000 </r>
        <r>  0.0000  0.1624  0.1161  0.0187  0.0000  0.0000  0.0000  0.0000  0.0000 </r>
       </set>
       <set comment="band 5">
        <r>  0.0596  0.1185  0.0565  0.0117  0.0000  0.0000  0.0000  0.0000  0.0000 </r>
        <r>  0.0596  0.1185  0.0565  0.0117  0.0000  0.0000  0.0000  0.0000  0.0000 </r>
       </set>
       <set comment="band 6">
        <r>  0.0482  0.0067  0.0621  0.1047  0.0000  0.0000  0.0000  0.0000  0.0000 </r>
        <r>  0.0482  0.0067  0.0621  0.1047  0.0000  0.0000  0.0000  0.0000  0.0000 </r>
       </set>
       <set comment="band 7">
        <r>  0.0873  0.1215  0.1028  0.0255  0.0000  0.0000  0.0000  0.0000  0.0000 </r>
        <r>  0.0873  0.1215  0.1028  0.0255  0.0000  0.0000  0.0000  0.0000  0.0000 </r>
       </set>
       <set comment="band 8">
        <r>  0.0529  0.0577  0.1346  0.1105  0.0000  0.0000  0.0000  0.0000  0.0000 </r>
        <r>  0.0529  0.0577  0.1346  0.1105  0.0000  0.0000  0.0000  0.0000  0.0000 </r>
       </set>
      </set>
      <set comment="kpoint 120">
       <set comment="band 1">
        <r>  0.2495  0.0374  0.0167  0.0414  0.0000  0.0000  0.0000  0.0000  0.0000 </r>
        <r>  0.2495  0.0374  0.0167  0.0414  0.0000  0.0000  0.0000  0.0000  0.0000 </r>
       </set>
       <set comment="band 2">
        <r>  0.2248  0.0468  0.0110  0.0621  0.0000  0.0000  0.0000  0.0000  0.0000 </r>
        <r>  0.2248  0.0468  0.0110  0.0621  0.0000  0.0000  0.0000  0.0000  0.0000 </r>
       </set>
       <set comment="band 3">
        <r>  0.0009  0.1574  0.0024  0.1240  0.0000  0.0000  0.0000  0.0000  0.0000 </r>
        <r>  0.0009  0.1574  0.0024  0.1240  0.0000  0.0000  0.0000  0.0000  0.0000 </r>
       </set>
       <set comment="band 4">
        <r>  0.0032  0.0173  0.2446  0.0339  0.0000  0.0000  0.0000  0.0000  0.0000 </r>
        <r>  0.0032  0.0173  0.2446  0.0339  0.0000  0.0000  0.0000  0.0000  0.0000 </r>
       </set>
       <set comment="band 5">
        <r>  0.0383  0.0502  0.0888  0.0536  0.0000  0.0000  0.0000  0.0000  0.0000 </r>
        <r>  0.0383  0.0502  0.0888  0.0536  0.0000  0.0000  0.0000  0.0000  0.0000 </r>
       </set>
       <set comment="band 6">
        <r>  0.0004  0.0485  0.1565  0.0293  0.0000  0.0000  0.0000  0.0000  0.0000 </r>
        <r>  0.0004  0.0485  0.1565  0.0293  0.0000  0.0000  0.0000  0.0000  0.0000 </r>
       </set>
       <set comment="band 7">
        <r>  0.1112  0.0758  0.0736  0.0926  0.0000  0.0000  0.0000  0.0000  0.0000 </r>
        <r>  0.1112  0.0758  0.0736  0.0926  0.0000  0.0000  0.0000  0.0000  0.0000 </r>
       </set>
       <set comment="band 8">
        <r>  0.1016  0.1310  0.0042  0.0934  0.0000  0.0000  0.0000  0.0000  0.0000 </r>
        <r>  0.1016  0.1310  0.0042  0.0934  0.0000  0.0000  0.0000  0.0000  0.0000 </r>
       </set>
      </set>
     </set>
    </set>
   </array>
  </projected>
 </calculation>
 <structure name="finalpos" >
  <crystal>
   <varray name="basis" >
    <v>       2.18050236       0.00000000       1.25891346 </v>
    <v>       0.72683412       2.05579703       1.25891346 </v>
    <v>       0.00000000       0.00000000       2.51782692 </v>
   </varray>
   <i name="volume">     11.28658789 </i>
   <varray name="rec_basis" >
    <v>       0.45860991      -0.16214311       0.00000000 </v>
    <v>       0.00000000       0.48642934       0.00000000 </v>
    <v>      -0.22930496      -0.16214311       0.39716789 </v>
   </varray>
  </crystal>
  <varray name="positions" >
   <v>       0.87500000       0.87500000       0.87500000 </v>
   <v>       0.12500000       0.12500000       0.12500000 </v>
  </varray>
 </structure>
</modeling>
