PROCAR lm decomposed
# of k-points:    3         # of bands:    8         # of ions:    2

 k-point     1 :    0.00000000 0.00000000 0.00000000     weight = 0.12500000

band     1 # energy  -11.53803014 # occ.  2.00000000
 
ion      s     py     pz     px    dxy    dyz    dz2    dxz  x2-y2    tot
    1  0.275  0.000  0.000  0.000  0.000  0.000  0.000  0.000  0.000  0.275
    2  0.275  0.000  0.000  0.000  0.000  0.000  0.000  0.000  0.000  0.275
tot    0.551  0.000  0.000  0.000  0.000  0.000  0.000  0.000  0.000  0.551
 
band     2 # energy   10.25406565 # occ.  2.00000000
 
ion      s     py     pz     px    dxy    dyz    dz2    dxz  x2-y2    tot
    1  0.000  0.047  0.249  0.086  0.000  0.000  0.000  0.000  0.000  0.382
    2  0.000  0.047  0.249  0.086  0.000  0.000  0.000  0.000  0.000  0.382
tot    0.000  0.094  0.497  0.172  0.000  0.000  0.000  0.000  0.000  0.763
 
band     3 # energy   10.25408976 # occ.  2.00000000
 
ion      s     py     pz     px    dxy    dyz    dz2    dxz  x2-y2    tot
    1  0.000  0.221  0.112  0.049  0.000  0.000  0.000  0.000  0.000  0.382
    2  0.000  0.221  0.112  0.049  0.000  0.000  0.000  0.000  0.000  0.382
tot    0.000  0.442  0.223  0.097  0.000  0.000  0.000  0.000  0.000  0.763
 
band     4 # energy   10.25409091 # occ.  2.00000000
 
ion      s     py     pz     px    dxy    dyz    dz2    dxz  x2-y2    tot
    1  0.000  0.113  0.021  0.247  0.000  0.000  0.000  0.000  0.000  0.382
    2  0.000  0.113  0.021  0.247  0.000  0.000  0.000  0.000  0.000  0.382
tot    0.000  0.227  0.042  0.494  0.000  0.000  0.000  0.000  0.000  0.763
 
band     5 # energy   15.79638482 # occ.  0.00000000
 
ion      s     py     pz     px    dxy    dyz    dz2    dxz  x2-y2    tot
    1  0.000  0.022  0.198  0.077  0.000  0.000  0.000  0.000  0.000  0.297
    2  0.000  0.022  0.198  0.077  0.000  0.000  0.000  0.000  0.000  0.297
tot    0.000  0.044  0.396  0.154  0.000  0.000  0.000  0.000  0.000  0.594
 
band     6 # energy   15.79640122 # occ.  0.00000000
 
ion      s     py     pz     px    dxy    dyz    dz2    dxz  x2-y2    tot
    1  0.000  0.046  0.045  0.206  0.000  0.000  0.000  0.000  0.000  0.297
    2  0.000  0.046  0.045  0.206  0.000  0.000  0.000  0.000  0.000  0.297
tot    0.000  0.093  0.089  0.413  0.000  0.000  0.000  0.000  0.000  0.594
 
band     7 # energy   15.79640498 # occ.  0.00000000
 
ion      s     py     pz     px    dxy    dyz    dz2    dxz  x2-y2    tot
    1  0.000  0.229  0.054  0.014  0.000  0.000  0.000  0.000  0.000  0.297
    2  0.000  0.229  0.054  0.014  0.000  0.000  0.000  0.000  0.000  0.297
tot    0.000  0.458  0.109  0.028  0.000  0.000  0.000  0.000  0.000  0.594
 
band     8 # energy   23.56401426 # occ.  0.00000000
 
ion      s     py     pz     px    dxy    dyz    dz2    dxz  x2-y2    tot
    1  0.384  0.000  0.000  0.000  0.000  0.000  0.000  0.000  0.000  0.384
    2  0.384  0.000  0.000  0.000  0.000  0.000  0.000  0.000  0.000  0.384
tot    0.767  0.000  0.000  0.000  0.000  0.000  0.000  0.000  0.000  0.767
 

 k-point     2 :    0.50000000 0.00000000 0.00000000     weight = 0.50000000

band     1 # energy   -5.68817633 # occ.  2.00000000
 
ion      s     py     pz     px    dxy    dyz    dz2    dxz  x2-y2    tot
    1  0.293  0.003  0.000  0.028  0.000  0.000  0.000  0.000  0.000  0.324
    2  0.293  0.003  0.000  0.028  0.000  0.000  0.000  0.000  0.000  0.324
tot    0.586  0.007  0.000  0.056  0.000  0.000  0.000  0.000  0.000  0.648
 
band     2 # energy   -3.40188301 # occ.  2.00000000
 
ion      s     py     pz     px    dxy    dyz    dz2    dxz  x2-y2    tot
    1  0.078  0.021  0.000  0.167  0.000  0.000  0.000  0.000  0.000  0.266
    2  0.078  0.021  0.000  0.167  0.000  0.000  0.000  0.000  0.000  0.266
tot    0.157  0.042  0.000  0.334  0.000  0.000  0.000  0.000  0.000  0.533
 
band     3 # energy    7.35511396 # occ.  2.00000000
 
ion      s     py     pz     px    dxy    dyz    dz2    dxz  x2-y2    tot
    1  0.000  0.092  0.263  0.012  0.000  0.000  0.000  0.000  0.000  0.367
    2  0.000  0.092  0.263  0.012  0.000  0.000  0.000  0.000  0.000  0.367
tot    0.000  0.185  0.526  0.023  0.000  0.000  0.000  0.000  0.000  0.734
 
band     4 # energy    7.35513340 # occ.  2.00000000
 
ion      s     py     pz     px    dxy    dyz    dz2    dxz  x2-y2    tot
    1  0.000  0.234  0.104  0.029  0.000  0.000  0.000  0.000  0.000  0.367
    2  0.000  0.234  0.104  0.029  0.000  0.000  0.000  0.000  0.000  0.367
tot    0.000  0.468  0.208  0.058  0.000  0.000  0.000  0.000  0.000  0.734
 
band     5 # energy   18.62562092 # occ.  0.00000000
 
ion      s     py     pz     px    dxy    dyz    dz2    dxz  x2-y2    tot
    1  0.000  0.054  0.197  0.007  0.000  0.000  0.000  0.000  0.000  0.258
    2  0.000  0.054  0.197  0.007  0.000  0.000  0.000  0.000  0.000  0.258
tot    0.000  0.108  0.394  0.014  0.000  0.000  0.000  0.000  0.000  0.516
 
band     6 # energy   18.62564122 # occ.  0.00000000
 
ion      s     py     pz     px    dxy    dyz    dz2    dxz  x2-y2    tot
    1  0.000  0.175  0.061  0.022  0.000  0.000  0.000  0.000  0.000  0.258
    2  0.000  0.175  0.061  0.022  0.000  0.000  0.000  0.000  0.000  0.258
tot    0.000  0.350  0.122  0.044  0.000  0.000  0.000  0.000  0.000  0.516
 
band     7 # energy   19.02041644 # occ.  0.00000000
 
ion      s     py     pz     px    dxy    dyz    dz2    dxz  x2-y2    tot
    1  0.279  0.002  0.000  0.014  0.000  0.000  0.000  0.000  0.000  0.295
    2  0.279  0.002  0.000  0.014  0.000  0.000  0.000  0.000  0.000  0.295
tot    0.559  0.004  0.000  0.028  0.000  0.000  0.000  0.000  0.000  0.591
 
band     8 # energy   26.18996742 # occ.  0.00000000
 
ion      s     py     pz     px    dxy    dyz    dz2    dxz  x2-y2    tot
    1  0.000  0.025  0.000  0.199  0.000  0.000  0.000  0.000  0.000  0.224
    2  0.000  0.025  0.000  0.199  0.000  0.000  0.000  0.000  0.000  0.224
tot    0.000  0.050  0.000  0.398  0.000  0.000  0.000  0.000  0.000  0.447
 

 k-point     3 :    0.50000000 0.50000000 0.00000000     weight = 0.37500000

band     1 # energy   -2.72941986 # occ.  2.00000000
 
ion      s     py     pz     px    dxy    dyz    dz2    dxz  x2-y2    tot
    1  0.205  0.038  0.000  0.075  0.000  0.000  0.000  0.000  0.000  0.318
    2  0.205  0.038  0.000  0.075  0.000  0.000  0.000  0.000  0.000  0.318
tot    0.411  0.075  0.000  0.150  0.000  0.000  0.000  0.000  0.000  0.636
 
band     2 # energy   -2.72941890 # occ.  2.00000000
 
ion      s     py     pz     px    dxy    dyz    dz2    dxz  x2-y2    tot
    1  0.205  0.038  0.000  0.075  0.000  0.000  0.000  0.000  0.000  0.318
    2  0.205  0.038  0.000  0.075  0.000  0.000  0.000  0.000  0.000  0.318
tot    0.411  0.075  0.000  0.150  0.000  0.000  0.000  0.000  0.000  0.636
 
band     3 # energy    3.81368449 # occ.  2.00000000
 
ion      s     py     pz     px    dxy    dyz    dz2    dxz  x2-y2    tot
    1  0.000  0.000  0.333  0.000  0.000  0.000  0.000  0.000  0.000  0.333
    2  0.000  0.000  0.333  0.000  0.000  0.000  0.000  0.000  0.000  0.333
tot    0.000  0.000  0.665  0.000  0.000  0.000  0.000  0.000  0.000  0.665
 
band     4 # energy    3.81369575 # occ.  2.00000000
 
ion      s     py     pz     px    dxy    dyz    dz2    dxz  x2-y2    tot
    1  0.000  0.222  0.000  0.111  0.000  0.000  0.000  0.000  0.000  0.333
    2  0.000  0.222  0.000  0.111  0.000  0.000  0.000  0.000  0.000  0.333
tot    0.000  0.443  0.000  0.222  0.000  0.000  0.000  0.000  0.000  0.665
 
band     5 # energy   14.78429925 # occ.  0.00000000
 
ion      s     py     pz     px    dxy    dyz    dz2    dxz  x2-y2    tot
    1  0.113  0.016  0.000  0.033  0.000  0.000  0.000  0.000  0.000  0.161
    2  0.113  0.016  0.000  0.033  0.000  0.000  0.000  0.000  0.000  0.161
tot    0.225  0.033  0.000  0.065  0.000  0.000  0.000  0.000  0.000  0.323
 
band     6 # energy   14.78430902 # occ.  0.00000000
 
ion      s     py     pz     px    dxy    dyz    dz2    dxz  x2-y2    tot
    1  0.113  0.016  0.000  0.033  0.000  0.000  0.000  0.000  0.000  0.161
    2  0.113  0.016  0.000  0.033  0.000  0.000  0.000  0.000  0.000  0.161
tot    0.225  0.033  0.000  0.065  0.000  0.000  0.000  0.000  0.000  0.323
 
band     7 # energy   27.64616750 # occ.  0.00000000
 
ion      s     py     pz     px    dxy    dyz    dz2    dxz  x2-y2    tot
    1  0.000  0.000  0.425  0.000  0.000  0.000  0.000  0.000  0.000  0.425
    2  0.000  0.000  0.425  0.000  0.000  0.000  0.000  0.000  0.000  0.425
tot    0.000  0.000  0.850  0.000  0.000  0.000  0.000  0.000  0.000  0.850
 
band     8 # energy   27.64619134 # occ.  0.00000000
 
ion      s     py     pz     px    dxy    dyz    dz2    dxz  x2-y2    tot
    1  0.000  0.283  0.000  0.142  0.000  0.000  0.000  0.000  0.000  0.425
    2  0.000  0.283  0.000  0.142  0.000  0.000  0.000  0.000  0.000  0.425
tot    0.000  0.567  0.000  0.283  0.000  0.000  0.000  0.000  0.000  0.850
 
