    2    2    1    1
  0.8491253E+02  0.3131270E-09  0.3131271E-09  0.2000000E-08  0.5000000E-15
  1.000000000000000E-004
  CAR 
 unknown system                          
      8     16      8
 
  0.0000000E+00  0.0000000E+00  0.0000000E+00  0.8264463E-02
    1      -17.582296
    2       -6.157960
    3       -4.629762
    4       -4.629750
    5       -1.018369
    6        0.938219
    7        1.304418
    8        2.045655
 
  0.9090909E-01  0.6938894E-17  0.0000000E+00  0.4958678E-01
    1      -17.494423
    2       -6.045441
    3       -5.079112
    4       -4.696013
    5       -0.712417
    6        1.071717
    7        1.483327
    8        2.251204
 
  0.1818182E+00  0.1387779E-16  0.0000000E+00  0.4958678E-01
    1      -17.245292
    2       -6.076441
    3       -5.720201
    4       -4.866044
    5       -0.032097
    6        1.434049
    7        2.004283
    8        2.813036
 
  0.2727273E+00 -0.5551115E-16  0.0000000E+00  0.4958678E-01
    1      -16.883030
    2       -7.179418
    3       -5.226865
    4       -5.073869
    5        0.807077
    6        1.820275
    7        2.841661
    8        3.353710
 
  0.3636364E+00  0.2775558E-16  0.0000000E+00  0.4958678E-01
    1      -16.501596
    2       -8.116024
    3       -5.252159
    4       -4.670414
    5        1.653410
    6        1.773134
    7        3.811892
    8        4.224815
 
  0.4545455E+00  0.0000000E+00  0.0000000E+00  0.4958678E-01
    1      -16.244416
    2       -8.666041
    3       -5.353090
    4       -4.262439
    5        1.445449
    6        2.144623
    7        4.255525
    8        5.283402
 
  0.9090909E-01  0.9090909E-01  0.0000000E+00  0.4958678E-01
    1      -17.325775
    2       -5.826378
    3       -5.756772
    4       -4.851699
    5       -0.228073
    6        1.321270
    7        1.833422
    8        2.638392
 
  0.1818182E+00  0.9090909E-01  0.0000000E+00  0.9917355E-01
    1      -17.018768
    2       -6.719543
    3       -5.415317
    4       -5.126480
    5        0.532551
    6        1.714562
    7        2.516799
    8        3.147590
 
  0.2727273E+00  0.9090909E-01  0.0000000E+00  0.9917355E-01
    1      -16.642372
    2       -7.673345
    3       -5.405984
    4       -4.882787
    5        1.434724
    6        1.903657
    7        3.502101
    8        3.821269
 
  0.3636364E+00  0.9090909E-01  0.0000000E+00  0.9917355E-01
    1      -16.314364
    2       -8.384714
    3       -5.605349
    4       -4.380912
    5        1.665466
    6        2.248011
    7        4.203165
    8        4.831657
 
  0.4545455E+00  0.9090909E-01  0.0000000E+00  0.4958678E-01
    1      -16.180194
    2       -8.652312
    3       -5.676824
    4       -4.160744
    5        1.475040
    6        2.547798
    7        4.455906
    8        5.557561
 
  0.1818182E+00  0.1818182E+00  0.0000000E+00  0.4958678E-01
    1      -16.694259
    2       -7.403913
    3       -5.615083
    4       -4.959872
    5        1.382736
    6        1.947104
    7        3.362405
    8        3.725036
 
  0.2727273E+00  0.1818182E+00  0.0000000E+00  0.9917355E-01
    1      -16.360244
    2       -7.992558
    3       -6.089920
    4       -4.459980
    5        1.911379
    6        2.386669
    7        4.480919
    8        4.630976
 
  0.3636364E+00  0.1818182E+00  0.0000000E+00  0.9917355E-01
    1      -16.140570
    2       -8.348057
    3       -6.365043
    4       -4.106646
    5        1.751542
    6        3.206285
    7        4.644330
    8        5.242055
 
  0.2727273E+00  0.2727273E+00  0.0000000E+00  0.4958678E-01
    1      -16.128057
    2       -8.062369
    3       -6.814338
    4       -4.092241
    5        1.952131
    6        3.448479
    7        4.904144
    8        4.987878
 
  0.3636364E+00  0.2727273E+00  0.0000000E+00  0.4958678E-01
    1      -16.037179
    2       -7.995040
    3       -7.180277
    4       -3.942532
    5        2.007882
    6        4.000229
    7        4.567172
    8        5.048389
