PROCAR lm decomposed
# of k-points:   16         # of bands:   8         # of ions:   2

 k-point    1 :    0.00000000 0.00000000 0.00000000     weight = 0.00826446

band   1 # energy  -17.58229640 # occ.  2.00000000
 
ion      s     py     pz     px    dxy    dyz    dz2    dxz    dx2    tot
  1  0.108  0.000  0.000  0.000  0.000  0.000  0.000  0.000  0.000  0.108
  2  0.528  0.000  0.000  0.000  0.000  0.000  0.000  0.000  0.000  0.528
tot  0.636  0.000  0.000  0.000  0.000  0.000  0.000  0.000  0.000  0.636
 
band   2 # energy   -6.15796041 # occ.  2.00000000
 
ion      s     py     pz     px    dxy    dyz    dz2    dxz    dx2    tot
  1  0.000  0.000  0.073  0.000  0.000  0.000  0.000  0.000  0.000  0.073
  2  0.000  0.000  0.302  0.000  0.000  0.000  0.000  0.000  0.000  0.302
tot  0.000  0.000  0.376  0.000  0.000  0.000  0.000  0.000  0.000  0.376
 
band   3 # energy   -4.62976162 # occ.  2.00000000
 
ion      s     py     pz     px    dxy    dyz    dz2    dxz    dx2    tot
  1  0.000  0.015  0.000  0.046  0.000  0.000  0.000  0.000  0.000  0.061
  2  0.000  0.142  0.000  0.449  0.000  0.000  0.000  0.000  0.000  0.590
tot  0.000  0.156  0.000  0.495  0.000  0.000  0.000  0.000  0.000  0.651
 
band   4 # energy   -4.62975025 # occ.  2.00000000
 
ion      s     py     pz     px    dxy    dyz    dz2    dxz    dx2    tot
  1  0.000  0.046  0.000  0.015  0.000  0.000  0.000  0.000  0.000  0.061
  2  0.000  0.449  0.000  0.142  0.000  0.000  0.000  0.000  0.000  0.590
tot  0.000  0.495  0.000  0.156  0.000  0.000  0.000  0.000  0.000  0.651
 
band   5 # energy   -1.01836906 # occ.  0.00000000
 
ion      s     py     pz     px    dxy    dyz    dz2    dxz    dx2    tot
  1  0.055  0.000  0.000  0.000  0.000  0.000  0.000  0.000  0.000  0.055
  2  0.132  0.000  0.000  0.000  0.000  0.000  0.000  0.000  0.000  0.132
tot  0.187  0.000  0.000  0.000  0.000  0.000  0.000  0.000  0.000  0.187
 
band   6 # energy    0.93821949 # occ.  0.00000000
 
ion      s     py     pz     px    dxy    dyz    dz2    dxz    dx2    tot
  1  0.000  0.000  0.000  0.000  0.000  0.000  0.000  0.000  0.000  0.000
  2  0.000  0.000  0.084  0.000  0.000  0.000  0.000  0.000  0.000  0.084
tot  0.000  0.000  0.084  0.000  0.000  0.000  0.000  0.000  0.000  0.084
 
band   7 # energy    1.30441797 # occ.  0.00000000
 
ion      s     py     pz     px    dxy    dyz    dz2    dxz    dx2    tot
  1  0.008  0.000  0.000  0.000  0.000  0.000  0.000  0.000  0.000  0.008
  2  0.011  0.000  0.000  0.000  0.000  0.000  0.000  0.000  0.000  0.011
tot  0.019  0.000  0.000  0.000  0.000  0.000  0.000  0.000  0.000  0.019
 
band   8 # energy    2.04565491 # occ.  0.00000000
 
ion      s     py     pz     px    dxy    dyz    dz2    dxz    dx2    tot
  1  0.035  0.000  0.000  0.000  0.000  0.000  0.000  0.000  0.000  0.035
  2  0.038  0.000  0.000  0.000  0.000  0.000  0.000  0.000  0.000  0.038
tot  0.073  0.000  0.000  0.000  0.000  0.000  0.000  0.000  0.000  0.073
 

 k-point    2 :    0.09090909 0.00000000 0.00000000     weight = 0.04958678

band   1 # energy  -17.49442333 # occ.  2.00000000
 
ion      s     py     pz     px    dxy    dyz    dz2    dxz    dx2    tot
  1  0.103  0.001  0.000  0.002  0.000  0.000  0.000  0.000  0.000  0.106
  2  0.532  0.000  0.000  0.000  0.000  0.000  0.000  0.000  0.000  0.532
tot  0.635  0.001  0.000  0.003  0.000  0.000  0.000  0.000  0.000  0.639
 
band   2 # energy   -6.04544131 # occ.  2.00000000
 
ion      s     py     pz     px    dxy    dyz    dz2    dxz    dx2    tot
  1  0.000  0.000  0.071  0.000  0.000  0.000  0.000  0.000  0.000  0.071
  2  0.000  0.000  0.308  0.000  0.000  0.000  0.000  0.000  0.000  0.308
tot  0.000  0.000  0.380  0.000  0.000  0.000  0.000  0.000  0.000  0.380
 
band   3 # energy   -5.07911166 # occ.  2.00000000
 
ion      s     py     pz     px    dxy    dyz    dz2    dxz    dx2    tot
  1  0.024  0.014  0.000  0.042  0.000  0.000  0.000  0.000  0.000  0.081
  2  0.019  0.133  0.000  0.398  0.000  0.000  0.000  0.000  0.000  0.550
tot  0.043  0.147  0.000  0.440  0.000  0.000  0.000  0.000  0.000  0.631
 
band   4 # energy   -4.69601286 # occ.  2.00000000
 
ion      s     py     pz     px    dxy    dyz    dz2    dxz    dx2    tot
  1  0.000  0.051  0.000  0.017  0.000  0.000  0.000  0.000  0.000  0.068
  2  0.000  0.438  0.000  0.146  0.000  0.000  0.000  0.000  0.000  0.584
tot  0.000  0.489  0.000  0.163  0.000  0.000  0.000  0.000  0.000  0.652
 
band   5 # energy   -0.71241674 # occ.  0.00000000
 
ion      s     py     pz     px    dxy    dyz    dz2    dxz    dx2    tot
  1  0.041  0.001  0.000  0.003  0.000  0.000  0.000  0.000  0.000  0.044
  2  0.108  0.008  0.000  0.025  0.000  0.000  0.000  0.000  0.000  0.142
tot  0.149  0.009  0.000  0.028  0.000  0.000  0.000  0.000  0.000  0.186
 
band   6 # energy    1.07171687 # occ.  0.00000000
 
ion      s     py     pz     px    dxy    dyz    dz2    dxz    dx2    tot
  1  0.000  0.000  0.000  0.000  0.000  0.000  0.000  0.000  0.000  0.000
  2  0.000  0.000  0.091  0.000  0.000  0.000  0.000  0.000  0.000  0.091
tot  0.000  0.000  0.091  0.000  0.000  0.000  0.000  0.000  0.000  0.091
 
band   7 # energy    1.48332722 # occ.  0.00000000
 
ion      s     py     pz     px    dxy    dyz    dz2    dxz    dx2    tot
  1  0.007  0.000  0.000  0.000  0.000  0.000  0.000  0.000  0.000  0.007
  2  0.009  0.001  0.000  0.002  0.000  0.000  0.000  0.000  0.000  0.011
tot  0.016  0.001  0.000  0.002  0.000  0.000  0.000  0.000  0.000  0.018
 
band   8 # energy    2.25120369 # occ.  0.00000000
 
ion      s     py     pz     px    dxy    dyz    dz2    dxz    dx2    tot
  1  0.031  0.000  0.000  0.001  0.000  0.000  0.000  0.000  0.000  0.033
  2  0.036  0.002  0.000  0.005  0.000  0.000  0.000  0.000  0.000  0.043
tot  0.067  0.002  0.000  0.006  0.000  0.000  0.000  0.000  0.000  0.076
 

 k-point    3 :    0.18181818 0.00000000 0.00000000     weight = 0.04958678

band   1 # energy  -17.24529180 # occ.  2.00000000
 
ion      s     py     pz     px    dxy    dyz    dz2    dxz    dx2    tot
  1  0.089  0.003  0.000  0.009  0.000  0.000  0.000  0.000  0.000  0.101
  2  0.545  0.000  0.000  0.001  0.000  0.000  0.000  0.000  0.000  0.546
tot  0.634  0.003  0.000  0.010  0.000  0.000  0.000  0.000  0.000  0.647
 
band   2 # energy   -6.07644081 # occ.  2.00000000
 
ion      s     py     pz     px    dxy    dyz    dz2    dxz    dx2    tot
  1  0.068  0.013  0.000  0.038  0.000  0.000  0.000  0.000  0.000  0.118
  2  0.039  0.111  0.000  0.333  0.000  0.000  0.000  0.000  0.000  0.484
tot  0.107  0.124  0.000  0.371  0.000  0.000  0.000  0.000  0.000  0.602
 
band   3 # energy   -5.72020087 # occ.  2.00000000
 
ion      s     py     pz     px    dxy    dyz    dz2    dxz    dx2    tot
  1  0.000  0.000  0.064  0.000  0.000  0.000  0.000  0.000  0.000  0.064
  2  0.000  0.000  0.328  0.000  0.000  0.000  0.000  0.000  0.000  0.328
tot  0.000  0.000  0.392  0.000  0.000  0.000  0.000  0.000  0.000  0.392
 
band   4 # energy   -4.86604387 # occ.  2.00000000
 
ion      s     py     pz     px    dxy    dyz    dz2    dxz    dx2    tot
  1  0.000  0.064  0.000  0.021  0.000  0.000  0.000  0.000  0.000  0.085
  2  0.000  0.427  0.000  0.142  0.000  0.000  0.000  0.000  0.000  0.569
tot  0.000  0.491  0.000  0.164  0.000  0.000  0.000  0.000  0.000  0.655
 
band   5 # energy   -0.03209714 # occ.  0.00000000
 
ion      s     py     pz     px    dxy    dyz    dz2    dxz    dx2    tot
  1  0.026  0.002  0.000  0.006  0.000  0.000  0.000  0.000  0.000  0.033
  2  0.077  0.016  0.000  0.047  0.000  0.000  0.000  0.000  0.000  0.140
tot  0.103  0.018  0.000  0.053  0.000  0.000  0.000  0.000  0.000  0.174
 
band   6 # energy    1.43404924 # occ.  0.00000000
 
ion      s     py     pz     px    dxy    dyz    dz2    dxz    dx2    tot
  1  0.000  0.000  0.004  0.000  0.000  0.000  0.000  0.000  0.000  0.004
  2  0.000  0.000  0.118  0.000  0.000  0.000  0.000  0.000  0.000  0.118
tot  0.000  0.000  0.122  0.000  0.000  0.000  0.000  0.000  0.000  0.122
 
band   7 # energy    2.00428343 # occ.  0.00000000
 
ion      s     py     pz     px    dxy    dyz    dz2    dxz    dx2    tot
  1  0.005  0.000  0.000  0.001  0.000  0.000  0.000  0.000  0.000  0.006
  2  0.007  0.001  0.000  0.003  0.000  0.000  0.000  0.000  0.000  0.011
tot  0.012  0.001  0.000  0.004  0.000  0.000  0.000  0.000  0.000  0.017
 
band   8 # energy    2.81303605 # occ.  0.00000000
 
ion      s     py     pz     px    dxy    dyz    dz2    dxz    dx2    tot
  1  0.026  0.001  0.000  0.004  0.000  0.000  0.000  0.000  0.000  0.031
  2  0.030  0.004  0.000  0.013  0.000  0.000  0.000  0.000  0.000  0.047
tot  0.055  0.006  0.000  0.017  0.000  0.000  0.000  0.000  0.000  0.078
 

 k-point    4 :    0.27272727-0.00000000 0.00000000     weight = 0.04958678

band   1 # energy  -16.88303033 # occ.  2.00000000
 
ion      s     py     pz     px    dxy    dyz    dz2    dxz    dx2    tot
  1  0.066  0.006  0.000  0.018  0.000  0.000  0.000  0.000  0.000  0.090
  2  0.567  0.001  0.000  0.002  0.000  0.000  0.000  0.000  0.000  0.569
tot  0.633  0.007  0.000  0.020  0.000  0.000  0.000  0.000  0.000  0.659
 
band   2 # energy   -7.17941833 # occ.  2.00000000
 
ion      s     py     pz     px    dxy    dyz    dz2    dxz    dx2    tot
  1  0.111  0.011  0.000  0.034  0.000  0.000  0.000  0.000  0.000  0.156
  2  0.039  0.096  0.000  0.288  0.000  0.000  0.000  0.000  0.000  0.423
tot  0.149  0.107  0.000  0.322  0.000  0.000  0.000  0.000  0.000  0.579
 
band   3 # energy   -5.22686529 # occ.  2.00000000
 
ion      s     py     pz     px    dxy    dyz    dz2    dxz    dx2    tot
  1  0.000  0.000  0.052  0.000  0.000  0.000  0.000  0.000  0.000  0.052
  2  0.000  0.000  0.364  0.000  0.000  0.000  0.000  0.000  0.000  0.364
tot  0.000  0.000  0.415  0.000  0.000  0.000  0.000  0.000  0.000  0.415
 
band   4 # energy   -5.07386885 # occ.  2.00000000
 
ion      s     py     pz     px    dxy    dyz    dz2    dxz    dx2    tot
  1  0.000  0.079  0.000  0.026  0.000  0.000  0.000  0.000  0.000  0.106
  2  0.000  0.414  0.000  0.138  0.000  0.000  0.000  0.000  0.000  0.552
tot  0.000  0.494  0.000  0.165  0.000  0.000  0.000  0.000  0.000  0.658
 
band   5 # energy    0.80707675 # occ.  0.00000000
 
ion      s     py     pz     px    dxy    dyz    dz2    dxz    dx2    tot
  1  0.028  0.003  0.000  0.009  0.000  0.000  0.000  0.000  0.000  0.040
  2  0.062  0.017  0.000  0.051  0.000  0.000  0.000  0.000  0.000  0.130
tot  0.090  0.020  0.000  0.060  0.000  0.000  0.000  0.000  0.000  0.170
 
band   6 # energy    1.82027470 # occ.  0.00000000
 
ion      s     py     pz     px    dxy    dyz    dz2    dxz    dx2    tot
  1  0.000  0.000  0.030  0.000  0.000  0.000  0.000  0.000  0.000  0.030
  2  0.000  0.000  0.162  0.000  0.000  0.000  0.000  0.000  0.000  0.162
tot  0.000  0.000  0.191  0.000  0.000  0.000  0.000  0.000  0.000  0.191
 
band   7 # energy    2.84166138 # occ.  0.00000000
 
ion      s     py     pz     px    dxy    dyz    dz2    dxz    dx2    tot
  1  0.006  0.001  0.000  0.002  0.000  0.000  0.000  0.000  0.000  0.009
  2  0.006  0.001  0.000  0.003  0.000  0.000  0.000  0.000  0.000  0.011
tot  0.012  0.002  0.000  0.005  0.000  0.000  0.000  0.000  0.000  0.019
 
band   8 # energy    3.35370969 # occ.  0.00000000
 
ion      s     py     pz     px    dxy    dyz    dz2    dxz    dx2    tot
  1  0.000  0.000  0.028  0.000  0.000  0.000  0.000  0.000  0.000  0.028
  2  0.000  0.000  0.041  0.000  0.000  0.000  0.000  0.000  0.000  0.041
tot  0.000  0.000  0.068  0.000  0.000  0.000  0.000  0.000  0.000  0.068
 

 k-point    5 :    0.36363636 0.00000000 0.00000000     weight = 0.04958678

band   1 # energy  -16.50159603 # occ.  2.00000000
 
ion      s     py     pz     px    dxy    dyz    dz2    dxz    dx2    tot
  1  0.038  0.010  0.000  0.029  0.000  0.000  0.000  0.000  0.000  0.077
  2  0.596  0.000  0.000  0.001  0.000  0.000  0.000  0.000  0.000  0.597
tot  0.634  0.010  0.000  0.030  0.000  0.000  0.000  0.000  0.000  0.675
 
band   2 # energy   -8.11602440 # occ.  2.00000000
 
ion      s     py     pz     px    dxy    dyz    dz2    dxz    dx2    tot
  1  0.150  0.010  0.000  0.029  0.000  0.000  0.000  0.000  0.000  0.189
  2  0.022  0.087  0.000  0.261  0.000  0.000  0.000  0.000  0.000  0.370
tot  0.171  0.097  0.000  0.291  0.000  0.000  0.000  0.000  0.000  0.559
 
band   3 # energy   -5.25215881 # occ.  2.00000000
 
ion      s     py     pz     px    dxy    dyz    dz2    dxz    dx2    tot
  1  0.000  0.092  0.000  0.031  0.000  0.000  0.000  0.000  0.000  0.122
  2  0.000  0.404  0.000  0.135  0.000  0.000  0.000  0.000  0.000  0.539
tot  0.000  0.496  0.000  0.165  0.000  0.000  0.000  0.000  0.000  0.661
 
band   4 # energy   -4.67041430 # occ.  2.00000000
 
ion      s     py     pz     px    dxy    dyz    dz2    dxz    dx2    tot
  1  0.000  0.000  0.033  0.000  0.000  0.000  0.000  0.000  0.000  0.033
  2  0.000  0.000  0.417  0.000  0.000  0.000  0.000  0.000  0.000  0.417
tot  0.000  0.000  0.450  0.000  0.000  0.000  0.000  0.000  0.000  0.450
 
band   5 # energy    1.65341014 # occ.  0.00000000
 
ion      s     py     pz     px    dxy    dyz    dz2    dxz    dx2    tot
  1  0.062  0.005  0.000  0.016  0.000  0.000  0.000  0.000  0.000  0.084
  2  0.062  0.014  0.000  0.041  0.000  0.000  0.000  0.000  0.000  0.117
tot  0.123  0.019  0.000  0.058  0.000  0.000  0.000  0.000  0.000  0.201
 
band   6 # energy    1.77313421 # occ.  0.00000000
 
ion      s     py     pz     px    dxy    dyz    dz2    dxz    dx2    tot
  1  0.000  0.000  0.102  0.000  0.000  0.000  0.000  0.000  0.000  0.102
  2  0.000  0.000  0.119  0.000  0.000  0.000  0.000  0.000  0.000  0.119
tot  0.000  0.000  0.220  0.000  0.000  0.000  0.000  0.000  0.000  0.220
 
band   7 # energy    3.81189229 # occ.  0.00000000
 
ion      s     py     pz     px    dxy    dyz    dz2    dxz    dx2    tot
  1  0.057  0.006  0.000  0.018  0.000  0.000  0.000  0.000  0.000  0.081
  2  0.014  0.001  0.000  0.003  0.000  0.000  0.000  0.000  0.000  0.018
tot  0.071  0.007  0.000  0.021  0.000  0.000  0.000  0.000  0.000  0.099
 
band   8 # energy    4.22481537 # occ.  0.00000000
 
ion      s     py     pz     px    dxy    dyz    dz2    dxz    dx2    tot
  1  0.029  0.004  0.000  0.012  0.000  0.000  0.000  0.000  0.000  0.045
  2  0.005  0.004  0.000  0.011  0.000  0.000  0.000  0.000  0.000  0.020
tot  0.034  0.008  0.000  0.023  0.000  0.000  0.000  0.000  0.000  0.065
 

 k-point    6 :    0.45454545 0.00000000 0.00000000     weight = 0.04958678

band   1 # energy  -16.24441566 # occ.  2.00000000
 
ion      s     py     pz     px    dxy    dyz    dz2    dxz    dx2    tot
  1  0.018  0.012  0.000  0.037  0.000  0.000  0.000  0.000  0.000  0.066
  2  0.620  0.000  0.000  0.000  0.000  0.000  0.000  0.000  0.000  0.620
tot  0.637  0.012  0.000  0.037  0.000  0.000  0.000  0.000  0.000  0.686
 
band   2 # energy   -8.66604135 # occ.  2.00000000
 
ion      s     py     pz     px    dxy    dyz    dz2    dxz    dx2    tot
  1  0.176  0.009  0.000  0.026  0.000  0.000  0.000  0.000  0.000  0.210
  2  0.003  0.083  0.000  0.249  0.000  0.000  0.000  0.000  0.000  0.335
tot  0.179  0.092  0.000  0.275  0.000  0.000  0.000  0.000  0.000  0.546
 
band   3 # energy   -5.35309031 # occ.  2.00000000
 
ion      s     py     pz     px    dxy    dyz    dz2    dxz    dx2    tot
  1  0.000  0.099  0.000  0.033  0.000  0.000  0.000  0.000  0.000  0.131
  2  0.000  0.399  0.000  0.133  0.000  0.000  0.000  0.000  0.000  0.532
tot  0.000  0.497  0.000  0.166  0.000  0.000  0.000  0.000  0.000  0.663
 
band   4 # energy   -4.26243912 # occ.  2.00000000
 
ion      s     py     pz     px    dxy    dyz    dz2    dxz    dx2    tot
  1  0.000  0.000  0.016  0.000  0.000  0.000  0.000  0.000  0.000  0.016
  2  0.000  0.000  0.469  0.000  0.000  0.000  0.000  0.000  0.000  0.469
tot  0.000  0.000  0.485  0.000  0.000  0.000  0.000  0.000  0.000  0.485
 
band   5 # energy    1.44544943 # occ.  0.00000000
 
ion      s     py     pz     px    dxy    dyz    dz2    dxz    dx2    tot
  1  0.000  0.000  0.155  0.000  0.000  0.000  0.000  0.000  0.000  0.155
  2  0.000  0.000  0.024  0.000  0.000  0.000  0.000  0.000  0.000  0.024
tot  0.000  0.000  0.179  0.000  0.000  0.000  0.000  0.000  0.000  0.179
 
band   6 # energy    2.14462281 # occ.  0.00000000
 
ion      s     py     pz     px    dxy    dyz    dz2    dxz    dx2    tot
  1  0.130  0.008  0.000  0.025  0.000  0.000  0.000  0.000  0.000  0.163
  2  0.067  0.005  0.000  0.014  0.000  0.000  0.000  0.000  0.000  0.085
tot  0.197  0.013  0.000  0.038  0.000  0.000  0.000  0.000  0.000  0.248
 
band   7 # energy    4.25552473 # occ.  0.00000000
 
ion      s     py     pz     px    dxy    dyz    dz2    dxz    dx2    tot
  1  0.020  0.003  0.000  0.008  0.000  0.000  0.000  0.000  0.000  0.031
  2  0.007  0.031  0.000  0.092  0.000  0.000  0.000  0.000  0.000  0.130
tot  0.027  0.034  0.000  0.101  0.000  0.000  0.000  0.000  0.000  0.161
 
band   8 # energy    5.28340233 # occ.  0.00000000
 
ion      s     py     pz     px    dxy    dyz    dz2    dxz    dx2    tot
  1  0.000  0.000  0.015  0.000  0.000  0.000  0.000  0.000  0.000  0.015
  2  0.000  0.000  0.038  0.000  0.000  0.000  0.000  0.000  0.000  0.038
tot  0.000  0.000  0.053  0.000  0.000  0.000  0.000  0.000  0.000  0.053
 

 k-point    7 :    0.09090909 0.09090909 0.00000000     weight = 0.04958678

band   1 # energy  -17.32577471 # occ.  2.00000000
 
ion      s     py     pz     px    dxy    dyz    dz2    dxz    dx2    tot
  1  0.094  0.007  0.000  0.002  0.000  0.000  0.000  0.000  0.000  0.103
  2  0.540  0.001  0.000  0.000  0.000  0.000  0.000  0.000  0.000  0.542
tot  0.634  0.007  0.000  0.003  0.000  0.000  0.000  0.000  0.000  0.644
 
band   2 # energy   -5.82637768 # occ.  2.00000000
 
ion      s     py     pz     px    dxy    dyz    dz2    dxz    dx2    tot
  1  0.000  0.000  0.067  0.000  0.000  0.000  0.000  0.000  0.000  0.067
  2  0.000  0.000  0.321  0.000  0.000  0.000  0.000  0.000  0.000  0.321
tot  0.000  0.000  0.388  0.000  0.000  0.000  0.000  0.000  0.000  0.388
 
band   3 # energy   -5.75677186 # occ.  2.00000000
 
ion      s     py     pz     px    dxy    dyz    dz2    dxz    dx2    tot
  1  0.055  0.030  0.000  0.021  0.000  0.000  0.000  0.000  0.000  0.106
  2  0.036  0.351  0.000  0.117  0.000  0.000  0.000  0.000  0.000  0.504
tot  0.091  0.380  0.000  0.138  0.000  0.000  0.000  0.000  0.000  0.610
 
band   4 # energy   -4.85169910 # occ.  2.00000000
 
ion      s     py     pz     px    dxy    dyz    dz2    dxz    dx2    tot
  1  0.002  0.031  0.000  0.049  0.000  0.000  0.000  0.000  0.000  0.083
  2  0.000  0.142  0.000  0.427  0.000  0.000  0.000  0.000  0.000  0.569
tot  0.002  0.174  0.000  0.476  0.000  0.000  0.000  0.000  0.000  0.652
 
band   5 # energy   -0.22807349 # occ.  0.00000000
 
ion      s     py     pz     px    dxy    dyz    dz2    dxz    dx2    tot
  1  0.027  0.004  0.000  0.003  0.000  0.000  0.000  0.000  0.000  0.034
  2  0.083  0.045  0.000  0.015  0.000  0.000  0.000  0.000  0.000  0.143
tot  0.111  0.049  0.000  0.018  0.000  0.000  0.000  0.000  0.000  0.177
 
band   6 # energy    1.32126981 # occ.  0.00000000
 
ion      s     py     pz     px    dxy    dyz    dz2    dxz    dx2    tot
  1  0.000  0.000  0.002  0.000  0.000  0.000  0.000  0.000  0.000  0.002
  2  0.000  0.000  0.108  0.000  0.000  0.000  0.000  0.000  0.000  0.108
tot  0.000  0.000  0.110  0.000  0.000  0.000  0.000  0.000  0.000  0.110
 
band   7 # energy    1.83342177 # occ.  0.00000000
 
ion      s     py     pz     px    dxy    dyz    dz2    dxz    dx2    tot
  1  0.005  0.000  0.000  0.000  0.000  0.000  0.000  0.000  0.000  0.006
  2  0.007  0.003  0.000  0.001  0.000  0.000  0.000  0.000  0.000  0.012
tot  0.012  0.004  0.000  0.001  0.000  0.000  0.000  0.000  0.000  0.017
 
band   8 # energy    2.63839229 # occ.  0.00000000
 
ion      s     py     pz     px    dxy    dyz    dz2    dxz    dx2    tot
  1  0.026  0.002  0.000  0.001  0.000  0.000  0.000  0.000  0.000  0.030
  2  0.031  0.013  0.000  0.004  0.000  0.000  0.000  0.000  0.000  0.048
tot  0.057  0.015  0.000  0.006  0.000  0.000  0.000  0.000  0.000  0.078
 

 k-point    8 :    0.18181818 0.09090909 0.00000000     weight = 0.09917355

band   1 # energy  -17.01876754 # occ.  2.00000000
 
ion      s     py     pz     px    dxy    dyz    dz2    dxz    dx2    tot
  1  0.075  0.011  0.000  0.009  0.000  0.000  0.000  0.000  0.000  0.094
  2  0.558  0.001  0.000  0.001  0.000  0.000  0.000  0.000  0.000  0.560
tot  0.633  0.012  0.000  0.010  0.000  0.000  0.000  0.000  0.000  0.655
 
band   2 # energy   -6.71954264 # occ.  2.00000000
 
ion      s     py     pz     px    dxy    dyz    dz2    dxz    dx2    tot
  1  0.093  0.009  0.000  0.038  0.000  0.000  0.000  0.000  0.000  0.140
  2  0.043  0.216  0.000  0.190  0.000  0.000  0.000  0.000  0.000  0.449
tot  0.135  0.225  0.000  0.229  0.000  0.000  0.000  0.000  0.000  0.589
 
band   3 # energy   -5.41531747 # occ.  2.00000000
 
ion      s     py     pz     px    dxy    dyz    dz2    dxz    dx2    tot
  1  0.000  0.000  0.057  0.000  0.000  0.000  0.000  0.000  0.000  0.057
  2  0.000  0.000  0.349  0.000  0.000  0.000  0.000  0.000  0.000  0.349
tot  0.000  0.000  0.406  0.000  0.000  0.000  0.000  0.000  0.000  0.406
 
band   4 # energy   -5.12648046 # occ.  2.00000000
 
ion      s     py     pz     px    dxy    dyz    dz2    dxz    dx2    tot
  1  0.007  0.067  0.000  0.031  0.000  0.000  0.000  0.000  0.000  0.106
  2  0.000  0.254  0.000  0.290  0.000  0.000  0.000  0.000  0.000  0.544
tot  0.007  0.321  0.000  0.321  0.000  0.000  0.000  0.000  0.000  0.650
 
band   5 # energy    0.53255114 # occ.  0.00000000
 
ion      s     py     pz     px    dxy    dyz    dz2    dxz    dx2    tot
  1  0.021  0.002  0.000  0.006  0.000  0.000  0.000  0.000  0.000  0.030
  2  0.062  0.045  0.000  0.029  0.000  0.000  0.000  0.000  0.000  0.136
tot  0.083  0.047  0.000  0.035  0.000  0.000  0.000  0.000  0.000  0.166
 
band   6 # energy    1.71456164 # occ.  0.00000000
 
ion      s     py     pz     px    dxy    dyz    dz2    dxz    dx2    tot
  1  0.000  0.000  0.015  0.000  0.000  0.000  0.000  0.000  0.000  0.015
  2  0.000  0.000  0.147  0.000  0.000  0.000  0.000  0.000  0.000  0.147
tot  0.000  0.000  0.162  0.000  0.000  0.000  0.000  0.000  0.000  0.162
 
band   7 # energy    2.51679937 # occ.  0.00000000
 
ion      s     py     pz     px    dxy    dyz    dz2    dxz    dx2    tot
  1  0.004  0.000  0.000  0.001  0.000  0.000  0.000  0.000  0.000  0.005
  2  0.005  0.003  0.000  0.002  0.000  0.000  0.000  0.000  0.000  0.011
tot  0.009  0.004  0.000  0.003  0.000  0.000  0.000  0.000  0.000  0.015
 
band   8 # energy    3.14758983 # occ.  0.00000000
 
ion      s     py     pz     px    dxy    dyz    dz2    dxz    dx2    tot
  1  0.000  0.000  0.020  0.000  0.000  0.000  0.000  0.000  0.000  0.020
  2  0.000  0.000  0.059  0.000  0.000  0.000  0.000  0.000  0.000  0.059
tot  0.000  0.000  0.079  0.000  0.000  0.000  0.000  0.000  0.000  0.079
 

 k-point    9 :    0.27272727 0.09090909 0.00000000     weight = 0.09917355

band   1 # energy  -16.64237248 # occ.  2.00000000
 
ion      s     py     pz     px    dxy    dyz    dz2    dxz    dx2    tot
  1  0.049  0.014  0.000  0.019  0.000  0.000  0.000  0.000  0.000  0.082
  2  0.584  0.001  0.000  0.001  0.000  0.000  0.000  0.000  0.000  0.586
tot  0.633  0.015  0.000  0.020  0.000  0.000  0.000  0.000  0.000  0.669
 
band   2 # energy   -7.67334488 # occ.  2.00000000
 
ion      s     py     pz     px    dxy    dyz    dz2    dxz    dx2    tot
  1  0.131  0.002  0.000  0.041  0.000  0.000  0.000  0.000  0.000  0.174
  2  0.031  0.145  0.000  0.218  0.000  0.000  0.000  0.000  0.000  0.395
tot  0.163  0.147  0.000  0.260  0.000  0.000  0.000  0.000  0.000  0.569
 
band   3 # energy   -5.40598402 # occ.  2.00000000
 
ion      s     py     pz     px    dxy    dyz    dz2    dxz    dx2    tot
  1  0.013  0.089  0.000  0.025  0.000  0.000  0.000  0.000  0.000  0.127
  2  0.001  0.311  0.000  0.210  0.000  0.000  0.000  0.000  0.000  0.521
tot  0.013  0.399  0.000  0.235  0.000  0.000  0.000  0.000  0.000  0.648
 
band   4 # energy   -4.88278658 # occ.  2.00000000
 
ion      s     py     pz     px    dxy    dyz    dz2    dxz    dx2    tot
  1  0.000  0.000  0.041  0.000  0.000  0.000  0.000  0.000  0.000  0.041
  2  0.000  0.000  0.394  0.000  0.000  0.000  0.000  0.000  0.000  0.394
tot  0.000  0.000  0.435  0.000  0.000  0.000  0.000  0.000  0.000  0.435
 
band   5 # energy    1.43472422 # occ.  0.00000000
 
ion      s     py     pz     px    dxy    dyz    dz2    dxz    dx2    tot
  1  0.031  0.002  0.000  0.011  0.000  0.000  0.000  0.000  0.000  0.044
  2  0.053  0.049  0.000  0.030  0.000  0.000  0.000  0.000  0.000  0.132
tot  0.084  0.051  0.000  0.041  0.000  0.000  0.000  0.000  0.000  0.176
 
band   6 # energy    1.90365727 # occ.  0.00000000
 
ion      s     py     pz     px    dxy    dyz    dz2    dxz    dx2    tot
  1  0.000  0.000  0.069  0.000  0.000  0.000  0.000  0.000  0.000  0.069
  2  0.000  0.000  0.156  0.000  0.000  0.000  0.000  0.000  0.000  0.156
tot  0.000  0.000  0.225  0.000  0.000  0.000  0.000  0.000  0.000  0.225
 
band   7 # energy    3.50210068 # occ.  0.00000000
 
ion      s     py     pz     px    dxy    dyz    dz2    dxz    dx2    tot
  1  0.010  0.001  0.000  0.003  0.000  0.000  0.000  0.000  0.000  0.013
  2  0.006  0.005  0.000  0.001  0.000  0.000  0.000  0.000  0.000  0.011
tot  0.015  0.006  0.000  0.004  0.000  0.000  0.000  0.000  0.000  0.024
 
band   8 # energy    3.82126897 # occ.  0.00000000
 
ion      s     py     pz     px    dxy    dyz    dz2    dxz    dx2    tot
  1  0.000  0.000  0.033  0.000  0.000  0.000  0.000  0.000  0.000  0.033
  2  0.000  0.000  0.011  0.000  0.000  0.000  0.000  0.000  0.000  0.011
tot  0.000  0.000  0.044  0.000  0.000  0.000  0.000  0.000  0.000  0.044
 

 k-point   10 :    0.36363636 0.09090909 0.00000000     weight = 0.09917355

band   1 # energy  -16.31436415 # occ.  2.00000000
 
ion      s     py     pz     px    dxy    dyz    dz2    dxz    dx2    tot
  1  0.024  0.016  0.000  0.030  0.000  0.000  0.000  0.000  0.000  0.070
  2  0.612  0.000  0.000  0.000  0.000  0.000  0.000  0.000  0.000  0.613
tot  0.636  0.017  0.000  0.030  0.000  0.000  0.000  0.000  0.000  0.683
 
band   2 # energy   -8.38471427 # occ.  2.00000000
 
ion      s     py     pz     px    dxy    dyz    dz2    dxz    dx2    tot
  1  0.164  0.003  0.000  0.035  0.000  0.000  0.000  0.000  0.000  0.202
  2  0.011  0.107  0.000  0.233  0.000  0.000  0.000  0.000  0.000  0.351
tot  0.175  0.110  0.000  0.268  0.000  0.000  0.000  0.000  0.000  0.553
 
band   3 # energy   -5.60534940 # occ.  2.00000000
 
ion      s     py     pz     px    dxy    dyz    dz2    dxz    dx2    tot
  1  0.017  0.095  0.000  0.028  0.000  0.000  0.000  0.000  0.000  0.140
  2  0.001  0.345  0.000  0.160  0.000  0.000  0.000  0.000  0.000  0.507
tot  0.018  0.441  0.000  0.188  0.000  0.000  0.000  0.000  0.000  0.647
 
band   4 # energy   -4.38091247 # occ.  2.00000000
 
ion      s     py     pz     px    dxy    dyz    dz2    dxz    dx2    tot
  1  0.000  0.000  0.022  0.000  0.000  0.000  0.000  0.000  0.000  0.022
  2  0.000  0.000  0.451  0.000  0.000  0.000  0.000  0.000  0.000  0.451
tot  0.000  0.000  0.473  0.000  0.000  0.000  0.000  0.000  0.000  0.473
 
band   5 # energy    1.66546615 # occ.  0.00000000
 
ion      s     py     pz     px    dxy    dyz    dz2    dxz    dx2    tot
  1  0.000  0.000  0.139  0.000  0.000  0.000  0.000  0.000  0.000  0.139
  2  0.000  0.000  0.065  0.000  0.000  0.000  0.000  0.000  0.000  0.065
tot  0.000  0.000  0.203  0.000  0.000  0.000  0.000  0.000  0.000  0.203
 
band   6 # energy    2.24801110 # occ.  0.00000000
 
ion      s     py     pz     px    dxy    dyz    dz2    dxz    dx2    tot
  1  0.079  0.005  0.000  0.018  0.000  0.000  0.000  0.000  0.000  0.102
  2  0.055  0.052  0.000  0.016  0.000  0.000  0.000  0.000  0.000  0.123
tot  0.134  0.057  0.000  0.034  0.000  0.000  0.000  0.000  0.000  0.225
 
band   7 # energy    4.20316544 # occ.  0.00000000
 
ion      s     py     pz     px    dxy    dyz    dz2    dxz    dx2    tot
  1  0.059  0.008  0.000  0.016  0.000  0.000  0.000  0.000  0.000  0.083
  2  0.011  0.002  0.000  0.069  0.000  0.000  0.000  0.000  0.000  0.082
tot  0.070  0.010  0.000  0.085  0.000  0.000  0.000  0.000  0.000  0.165
 
band   8 # energy    4.83165708 # occ.  0.00000000
 
ion      s     py     pz     px    dxy    dyz    dz2    dxz    dx2    tot
  1  0.000  0.000  0.026  0.000  0.000  0.000  0.000  0.000  0.000  0.026
  2  0.000  0.000  0.008  0.000  0.000  0.000  0.000  0.000  0.000  0.008
tot  0.000  0.000  0.034  0.000  0.000  0.000  0.000  0.000  0.000  0.034
 

 k-point   11 :    0.45454545 0.09090909 0.00000000     weight = 0.04958678

band   1 # energy  -16.18019385 # occ.  2.00000000
 
ion      s     py     pz     px    dxy    dyz    dz2    dxz    dx2    tot
  1  0.012  0.014  0.000  0.037  0.000  0.000  0.000  0.000  0.000  0.064
  2  0.625  0.000  0.000  0.000  0.000  0.000  0.000  0.000  0.000  0.625
tot  0.638  0.014  0.000  0.037  0.000  0.000  0.000  0.000  0.000  0.689
 
band   2 # energy   -8.65231242 # occ.  2.00000000
 
ion      s     py     pz     px    dxy    dyz    dz2    dxz    dx2    tot
  1  0.178  0.010  0.000  0.025  0.000  0.000  0.000  0.000  0.000  0.213
  2  0.000  0.083  0.000  0.250  0.000  0.000  0.000  0.000  0.000  0.333
tot  0.178  0.094  0.000  0.275  0.000  0.000  0.000  0.000  0.000  0.547
 
band   3 # energy   -5.67682418 # occ.  2.00000000
 
ion      s     py     pz     px    dxy    dyz    dz2    dxz    dx2    tot
  1  0.018  0.092  0.000  0.035  0.000  0.000  0.000  0.000  0.000  0.144