<?xml version="1.0" encoding="ISO-8859-1"?>
<modeling>
 <generator>
  <i name="program" type="string">vasp </i>
  <i name="version" type="string">5.3.5  </i>
  <i name="subversion" type="string">31Mar14 (build Jul 11 2014 22:06:56) complex                          parallel </i>
  <i name="platform" type="string">LinuxIFC </i>
  <i name="date" type="string">2020 12 02 </i>
  <i name="time" type="string">13:17:14 </i>
 </generator>
 <incar>
  <i type="int" name="ISTART">     1</i>
  <i type="string" name="PREC">accurate</i>
  <i type="string" name="ALGO"> Normal</i>
  <i name="AMIN">      0.01000000</i>
  <i type="int" name="ICHARG">     0</i>
  <i type="int" name="NELM">   400</i>
  <i type="int" name="IBRION">    -1</i>
  <i name="EDIFF">      0.00010000</i>
  <i type="int" name="NSW">     0</i>
  <i type="int" name="ISIF">     3</i>
  <i name="ENCUT">    520.00000000</i>
  <i type="logical" name="LREAL"> F  </i>
  <i type="int" name="ISMEAR">    -5</i>
  <i name="SIGMA">      0.05000000</i>
  <i type="logical" name="LWAVE"> F  </i>
  <i type="logical" name="LCHARG"> T  </i>
  <i type="logical" name="LVHAR"> F  </i>
  <i type="logical" name="LORBIT"> F  </i>
  <i type="logical" name="LAECHG"> F  </i>
  <i type="int" name="NELM">   400</i>
  <i name="PARAM1">      0.18333333</i>
  <i name="PARAM2">      0.22000000</i>
  <i type="logical" name="LUSE_VDW"> F  </i>
  <i name="AGGAC">      1.00000000</i>
 </incar>
 <kpoints>
  <generation param="Gamma">
   <v type="int" name="divisions">      11       11        1 </v>
   <v name="usershift">      0.00000000       0.00000000       0.00000000 </v>
   <v name="genvec1">      0.09090909      -0.00000000       0.00000000 </v>
   <v name="genvec2">      0.00000000       0.09090909       0.00000000 </v>
   <v name="genvec3">      0.00000000       0.00000000       1.00000000 </v>
   <v name="shift">      0.00000000       0.00000000       0.00000000 </v>
  </generation>
  <varray name="kpointlist" >
   <v>       0.00000000       0.00000000       0.00000000 </v>
   <v>       0.09090909       0.00000000       0.00000000 </v>
   <v>       0.18181818       0.00000000       0.00000000 </v>
   <v>       0.27272727      -0.00000000       0.00000000 </v>
   <v>       0.36363636       0.00000000       0.00000000 </v>
   <v>       0.45454545       0.00000000       0.00000000 </v>
   <v>       0.09090909       0.09090909       0.00000000 </v>
   <v>       0.18181818       0.09090909       0.00000000 </v>
   <v>       0.27272727       0.09090909       0.00000000 </v>
   <v>       0.36363636       0.09090909       0.00000000 </v>
   <v>       0.45454545       0.09090909       0.00000000 </v>
   <v>       0.18181818       0.18181818       0.00000000 </v>
   <v>       0.27272727       0.18181818       0.00000000 </v>
   <v>       0.36363636       0.18181818       0.00000000 </v>
   <v>       0.27272727       0.27272727       0.00000000 </v>
   <v>       0.36363636       0.27272727       0.00000000 </v>
  </varray>
  <varray name="weights" >
   <v>       0.00826446 </v>
   <v>       0.04958678 </v>
   <v>       0.04958678 </v>
   <v>       0.04958678 </v>
   <v>       0.04958678 </v>
   <v>       0.04958678 </v>
   <v>       0.04958678 </v>
   <v>       0.09917355 </v>
   <v>       0.09917355 </v>
   <v>       0.09917355 </v>
   <v>       0.04958678 </v>
   <v>       0.04958678 </v>
   <v>       0.09917355 </v>
   <v>       0.09917355 </v>
   <v>       0.04958678 </v>
   <v>       0.04958678 </v>
  </varray>
  <varray name="tetrahedronlist"  type="int" >
   <v type="int" >       12        2        2        2        7 </v>
   <v type="int" >       12        1        2        2        2 </v>
   <v type="int" >        6        1        1        2        2 </v>
   <v type="int" >        6        2        2        7        7 </v>
   <v type="int" >       12        3        7        7        8 </v>
   <v type="int" >       12        2        3        7        7 </v>
   <v type="int" >       12        2        2        3        7 </v>
   <v type="int" >       12        3        7        8        8 </v>
   <v type="int" >       12        3        3        7        8 </v>
   <v type="int" >       12        2        3        3        7 </v>
   <v type="int" >       12        4        8        8        9 </v>
   <v type="int" >       12        3        4        8        8 </v>
   <v type="int" >       12        3        3        4        8 </v>
   <v type="int" >       12        4        8        9        9 </v>
   <v type="int" >       12        4        4        8        9 </v>
   <v type="int" >       12        3        4        4        8 </v>
   <v type="int" >       12        5        9        9       10 </v>
   <v type="int" >       12        4        5        9        9 </v>
   <v type="int" >       12        4        4        5        9 </v>
   <v type="int" >       12        5        9       10       10 </v>
   <v type="int" >       12        5        5        9       10 </v>
   <v type="int" >       12        4        5        5        9 </v>
   <v type="int" >       12        6       10       10       11 </v>
   <v type="int" >       12        5        6       10       10 </v>
   <v type="int" >       12        5        5        6       10 </v>
   <v type="int" >       12        6       10       11       11 </v>
   <v type="int" >       12        6        6       10       11 </v>
   <v type="int" >       12        5        6        6       10 </v>
   <v type="int" >        6        6        6       11       11 </v>
   <v type="int" >       12        6        6        6       11 </v>
   <v type="int" >       12        8        8        8       12 </v>
   <v type="int" >       12        7        8        8        8 </v>
   <v type="int" >        6        7        7        8        8 </v>
   <v type="int" >        6        8        8       12       12 </v>
   <v type="int" >       12        9       12       12       13 </v>
   <v type="int" >       12        8        9       12       12 </v>
   <v type="int" >       12        8        8        9       12 </v>
   <v type="int" >       12        9       12       13       13 </v>
   <v type="int" >       12        9        9       12       13 </v>
   <v type="int" >       12        8        9        9       12 </v>
   <v type="int" >       12       10       13       13       14 </v>
   <v type="int" >       12        9       10       13       13 </v>
   <v type="int" >       12        9        9       10       13 </v>
   <v type="int" >       12       10       13       14       14 </v>
   <v type="int" >       12       10       10       13       14 </v>
   <v type="int" >       12        9       10       10       13 </v>
   <v type="int" >       12       11       14       14       14 </v>
   <v type="int" >       12       10       11       14       14 </v>
   <v type="int" >       12       10       10       11       14 </v>
   <v type="int" >        6       11       11       14       14 </v>
   <v type="int" >       12       10       11       11       14 </v>
   <v type="int" >       12       13       13       13       15 </v>
   <v type="int" >       12       12       13       13       13 </v>
   <v type="int" >        6       12       12       13       13 </v>
   <v type="int" >        6       13       13       15       15 </v>
   <v type="int" >       12       14       15       15       16 </v>
   <v type="int" >       12       13       14       15       15 </v>
   <v type="int" >       12       13       13       14       15 </v>
   <v type="int" >       12       14       15       16       16 </v>
   <v type="int" >       12       14       14       15       16 </v>
   <v type="int" >       12       13       14       14       15 </v>
   <v type="int" >        6       14       14       16       16 </v>
   <v type="int" >       12       14       14       14       16 </v>
   <v type="int" >        6       16       16       16       16 </v>
   <v type="int" >       12       15       16       16       16 </v>
   <v type="int" >        6       15       15       16       16 </v>
  </varray>
  <i name="volumeweight">      0.00137741 </i>
 </kpoints>
 <parameters>
  <separator name="general" >
   <i type="string" name="SYSTEM">unknown system</i>
   <i type="logical" name="LCOMPAT"> F  </i>
  </separator>
  <separator name="electronic" >
   <i type="string" name="PREC">accura</i>
   <i name="ENMAX">    520.00000000</i>
   <i name="ENAUG">    627.11200000</i>
   <i name="EDIFF">      0.00010000</i>
   <i type="int" name="IALGO">    38</i>
   <i type="int" name="IWAVPR">    10</i>
   <i type="int" name="NBANDS">     8</i>
   <i name="NELECT">      8.00000000</i>
   <i type="int" name="TURBO">     0</i>
   <i type="int" name="IRESTART">     0</i>
   <i type="int" name="NREBOOT">     0</i>
   <i type="int" name="NMIN">     0</i>
   <i name="EREF">      0.00000000</i>
   <separator name="electronic smearing" >
    <i type="int" name="ISMEAR">    -5</i>
    <i name="SIGMA">      0.05000000</i>
    <i name="KSPACING">      0.50000000</i>
    <i type="logical" name="KGAMMA"> T  </i>
   </separator>
   <separator name="electronic projectors" >
    <i type="logical" name="LREAL"> F  </i>
    <v name="ROPT">      0.00000000      0.00000000</v>
    <i type="int" name="LMAXPAW">  -100</i>
    <i type="int" name="LMAXMIX">     2</i>
    <i type="logical" name="NLSPLINE"> F  </i>
   </separator>
   <separator name="electronic startup" >
    <i type="int" name="ISTART">     0</i>
    <i type="int" name="ICHARG">     2</i>
    <i type="int" name="INIWAV">     1</i>
   </separator>
   <separator name="electronic spin" >
    <i type="int" name="ISPIN">     1</i>
    <i type="logical" name="LNONCOLLINEAR"> F  </i>
    <v name="MAGMOM">      1.00000000      1.00000000</v>
    <i name="NUPDOWN">     -1.00000000</i>
    <i type="logical" name="LSORBIT"> F  </i>
    <v name="SAXIS">      0.00000000      0.00000000      1.00000000</v>
    <i type="logical" name="LSPIRAL"> F  </i>
    <v name="QSPIRAL">      0.00000000      0.00000000      0.00000000</v>
    <i type="logical" name="LZEROZ"> F  </i>
   </separator>
   <separator name="electronic exchange-correlation" >
    <i type="logical" name="LASPH"> F  </i>
    <i type="logical" name="LMETAGGA"> F  </i>
   </separator>
   <separator name="electronic convergence" >
    <i type="int" name="NELM">   400</i>
    <i type="int" name="NELMDL">     0</i>
    <i type="int" name="NELMIN">     2</i>
    <i name="ENINI">    520.00000000</i>
    <separator name="electronic convergence detail" >
     <i type="logical" name="LDIAG"> T  </i>
     <i type="logical" name="LSUBROT"> F  </i>
     <i name="WEIMIN">      0.00000000</i>
     <i name="EBREAK">      0.00000313</i>
     <i name="DEPER">      0.30000000</i>
     <i type="int" name="NRMM">     4</i>
     <i name="TIME">      0.40000000</i>
    </separator>
   </separator>
   <separator name="electronic mixer" >
    <i name="AMIX">      0.40000000</i>
    <i name="BMIX">      1.00000000</i>
    <i name="AMIN">      0.01000000</i>
    <i name="AMIX_MAG">      1.60000000</i>
    <i name="BMIX_MAG">      1.00000000</i>
    <separator name="electronic mixer details" >
     <i type="int" name="IMIX">     4</i>
     <i type="int" name="MAXMIX">   -45</i>
     <i name="WC">    100.00000000</i>
     <i type="int" name="INIMIX">     1</i>
     <i type="int" name="MIXPRE">     1</i>
     <i type="int" name="MREMOVE">     5</i>
    </separator>
   </separator>
   <separator name="electronic dipolcorrection" >
    <i type="logical" name="LDIPOL"> F  </i>
    <i type="logical" name="LMONO"> F  </i>
    <i type="int" name="IDIPOL">     0</i>
    <i name="EPSILON">      1.00000000</i>
    <v name="DIPOL">   -100.00000000   -100.00000000   -100.00000000</v>
    <i name="EFIELD">      0.00000000</i>
   </separator>
  </separator>
  <separator name="grids" >
   <i type="int" name="NGX">    24</i>
   <i type="int" name="NGY">    24</i>
   <i type="int" name="NGZ">   150</i>
   <i type="int" name="NGXF">    48</i>
   <i type="int" name="NGYF">    48</i>
   <i type="int" name="NGZF">   300</i>
   <i type="logical" name="ADDGRID"> F  </i>
  </separator>
  <separator name="ionic" >
   <i type="int" name="NSW">     0</i>
   <i type="int" name="IBRION">    -1</i>
   <i type="int" name="ISIF">     3</i>
   <i name="PSTRESS">      0.00000000</i>
   <i name="EDIFFG">      0.00100000</i>
   <i type="int" name="NFREE">     0</i>
   <i name="POTIM">      0.50000000</i>
   <i name="SMASS">     -3.00000000</i>
   <i name="SCALEE">      1.00000000</i>
  </separator>
  <separator name="ionic md" >
   <i name="TEBEG">      0.00010000</i>
   <i name="TEEND">      0.00010000</i>
   <i type="int" name="NBLOCK">     1</i>
   <i type="int" name="KBLOCK">     1</i>
   <i type="int" name="NPACO">   256</i>
   <i name="APACO">     16.00000000</i>
  </separator>
  <separator name="symmetry" >
   <i type="int" name="ISYM">     2</i>
   <i name="SYMPREC">      0.00001000</i>
  </separator>
  <separator name="dos" >
   <i type="logical" name="LORBIT"> F  </i>
   <v name="RWIGS">     -1.00000000     -1.00000000</v>
   <i type="int" name="NEDOS">   301</i>
   <i name="EMIN">     10.00000000</i>
   <i name="EMAX">    -10.00000000</i>
   <i name="EFERMI">      0.00000000</i>
  </separator>
  <separator name="writing" >
   <i type="int" name="NWRITE">     2</i>
   <i type="logical" name="LWAVE"> F  </i>
   <i type="logical" name="LCHARG"> T  </i>
   <i type="logical" name="LPARD"> F  </i>
   <i type="logical" name="LVTOT"> F  </i>
   <i type="logical" name="LVHAR"> F  </i>
   <i type="logical" name="LELF"> F  </i>
   <i type="logical" name="LOPTICS"> F  </i>
   <v name="STM">      0.00000000      0.00000000      0.00000000      0.00000000      0.00000000      0.00000000      0.00000000</v>
  </separator>
  <separator name="performance" >
   <i type="int" name="NPAR">     4</i>
   <i type="int" name="NSIM">     4</i>
   <i type="int" name="NBLK">    -1</i>
   <i type="logical" name="LPLANE"> T  </i>
   <i type="logical" name="LSCALAPACK"> T  </i>
   <i type="logical" name="LSCAAWARE"> F  </i>
   <i type="logical" name="LSCALU"> F  </i>
   <i type="logical" name="LASYNC"> F  </i>
   <i type="logical" name="LORBITALREAL"> F  </i>
  </separator>
  <separator name="miscellaneous" >
   <i type="int" name="IDIOT">     3</i>
   <i type="logical" name="LMUSIC"> F  </i>
   <v name="POMASS">     26.98100000     14.00100000</v>
   <v name="DARWINR">      0.00000000      0.00000000</v>
   <v name="DARWINV">      1.00000000      1.00000000</v>
   <i type="logical" name="LCORR"> T  </i>
  </separator>
  <i type="logical" name="GGA_COMPAT"> T  </i>
  <i type="logical" name="LBERRY"> F  </i>
  <i type="int" name="ICORELEVEL">     0</i>
  <i type="logical" name="LDAU"> F  </i>
  <i type="int" name="I_CONSTRAINED_M">     0</i>
  <separator name="electronic exchange-correlation" >
   <i type="string" name="GGA">--</i>
   <i type="int" name="VOSKOWN">     0</i>
   <i type="logical" name="LHFCALC"> F  </i>
   <i type="string" name="PRECFOCK"></i>
   <i type="logical" name="LSYMGRAD"> F  </i>
   <i type="logical" name="LHFONE"> F  </i>
   <i type="logical" name="LRHFCALC"> F  </i>
   <i type="logical" name="LTHOMAS"> F  </i>
   <i type="logical" name="LMODELHF"> F  </i>
   <i name="ENCUT4O">     -1.00000000</i>
   <i type="int" name="EXXOEP">     0</i>
   <i type="int" name="FOURORBIT">     0</i>
   <i name="AEXX">      0.00000000</i>
   <i name="HFALPHA">      0.00000000</i>
   <i name="MCALPHA">      0.00000000</i>
   <i name="ALDAX">      1.00000000</i>
   <i name="AGGAX">      1.00000000</i>
   <i name="ALDAC">      1.00000000</i>
   <i name="AGGAC">      1.00000000</i>
   <i type="int" name="NKREDX">     1</i>
   <i type="int" name="NKREDY">     1</i>
   <i type="int" name="NKREDZ">     1</i>
   <i type="logical" name="SHIFTRED"> F  </i>
   <i type="logical" name="ODDONLY"> F  </i>
   <i type="logical" name="EVENONLY"> F  </i>
   <i type="int" name="LMAXFOCK">     0</i>
   <i type="int" name="NMAXFOCKAE">     0</i>
   <i type="logical" name="LFOCKAEDFT"> F  </i>
   <i name="HFSCREEN">      0.00000000</i>
   <i name="HFSCREENC">      0.00000000</i>
   <i type="int" name="NBANDSGWLOW">     0</i>
  </separator>
  <separator name="vdW DFT" >
   <i type="logical" name="LUSE_VDW"> F  </i>
   <i name="Zab_VDW">     -0.84910000</i>
   <i name="PARAM1">      0.18333333</i>
   <i name="PARAM2">      0.22000000</i>
   <i name="PARAM3">      0.00000000</i>
  </separator>
  <separator name="model GW" >
   <i type="int" name="MODEL_GW">     0</i>
   <i name="MODEL_EPS0">     50.94751641</i>
   <i name="MODEL_ALPHA">      1.00000000</i>
  </separator>
  <separator name="linear response parameters" >
   <i type="logical" name="LEPSILON"> F  </i>
   <i type="logical" name="LRPA"> F  </i>
   <i type="logical" name="LNABLA"> F  </i>
   <i type="logical" name="LVEL"> F  </i>
   <i type="int" name="KINTER">     0</i>
   <i name="CSHIFT">      0.10000000</i>
   <i name="OMEGAMAX">     -1.00000000</i>
   <i name="DEG_THRESHOLD">      0.00200000</i>
  </separator>
  <separator name="orbital magnetization" >
   <i type="logical" name="NUCIND"> F  </i>
   <v name="MAGPOS">      0.00000000      0.00000000      0.00000000</v>
   <i type="logical" name="LNICSALL"> T  </i>
   <i type="logical" name="ORBITALMAG"> F  </i>
   <i type="logical" name="LMAGBLOCH"> F  </i>
   <i type="logical" name="LCHIMAG"> F  </i>
   <i type="logical" name="LGAUGE"> T  </i>
   <i type="int" name="MAGATOM">     0</i>
   <v name="MAGDIPOL">      0.00000000      0.00000000      0.00000000</v>
   <v name="AVECCONST">      0.00000000      0.00000000      0.00000000</v>
  </separator>
  <separator name="response functions" >
   <i type="logical" name="LADDER"> F  </i>
   <i type="logical" name="LFXC"> F  </i>
   <i type="logical" name="LHARTREE"> T  </i>
   <i type="int" name="IBSE">     0</i>
   <i type="logical" name="LTCTE"> F  </i>
   <i type="logical" name="LTETE"> F  </i>
   <i type="logical" name="LTRIPLET"> F  </i>
   <i type="logical" name="LFXCEPS"> F  </i>
   <i type="logical" name="LFXHEG"> F  </i>
   <i type="logical" name="L2ORDER"> F  </i>
   <i type="logical" name="LUSEW"> F  </i>
   <i name="ENCUTGW">     -2.00000000</i>
   <i name="ENCUTGWSOFT">     -2.00000000</i>
   <i name="ENCUTLF">     -1.00000000</i>
   <i type="int" name="LMAXMP2">    -1</i>
   <i name="SCISSOR">      0.00000000</i>
   <i type="int" name="NOMEGA">     0</i>
   <i type="int" name="NOMEGAR">     0</i>
   <i type="int" name="NBANDSGW">    -1</i>
   <i type="int" name="NBANDSO">    -1</i>
   <i type="int" name="NBANDSV">    -1</i>
   <i type="int" name="NELM">   400</i>
   <i type="int" name="DIM">     3</i>
   <i type="int" name="ANTIRES">     0</i>
   <i name="OMEGAMAX">    -30.00000000</i>
   <i name="OMEGAMIN">    -30.00000000</i>
   <i name="OMEGATL">   -200.00000000</i>
   <i type="int" name="OMEGAGRID">     0</i>
   <i name="CSHIFT">     -0.10000000</i>
   <i type="logical" name="SELFENERGY"> F  </i>
   <i type="logical" name="LSPECTRAL"> F  </i>
   <i type="logical" name="ODDONLYGW"> F  </i>
   <i type="logical" name="EVENONLYGW"> F  </i>
   <i type="int" name="NKREDLFX">     1</i>
   <i type="int" name="NKREDLFY">     1</i>
   <i type="int" name="NKREDLFZ">     1</i>
   <i type="int" name="MAXMEM">  1800</i>
   <i type="int" name="TELESCOPE">     0</i>
   <i type="int" name="TAUPAR">     1</i>
  </separator>
  <separator name="External order field" >
   <i name="OFIELD_KAPPA">      0.00000000</i>
   <v name="OFIELD_K">      0.00000000      0.00000000      0.00000000</v>
   <i name="OFIELD_Q6_NEAR">      0.00000000</i>
   <i name="OFIELD_Q6_FAR">      0.00000000</i>
   <i name="OFIELD_A">      0.00000000</i>
  </separator>
 </parameters>
 <atominfo>
  <atoms>       2 </atoms>
  <types>       2 </types>
  <array name="atoms" >
   <dimension dim="1">ion</dimension>
   <field type="string">element</field>
   <field type="int">atomtype</field>
   <set>
    <rc><c>Al</c><c>   1</c></rc>
    <rc><c>N </c><c>   2</c></rc>
   </set>
  </array>
  <array name="atomtypes" >
   <dimension dim="1">type</dimension>
   <field type="int">atomspertype</field>
   <field type="string">element</field>
   <field>mass</field>
   <field>valence</field>
   <field type="string">pseudopotential</field>
   <set>
    <rc><c>   1</c><c>Al</c><c>     26.98100000</c><c>      3.00000000</c><c>  PAW_PBE Al 04Jan2001                  </c></rc>
    <rc><c>   1</c><c>N </c><c>     14.00100000</c><c>      5.00000000</c><c>  PAW_PBE N 08Apr2002                   </c></rc>
   </set>
  </array>
 </atominfo>
 <structure name="initialpos" >
  <crystal>
   <varray name="basis" >
    <v>       3.13127000       0.00000000       0.00000000 </v>
    <v>      -1.56563500       2.71176000       0.00000000 </v>
    <v>       0.00000000       0.00000000      20.00000000 </v>
   </varray>
   <i name="volume">    169.82505470 </i>
   <varray name="rec_basis" >
    <v>       0.31935924       0.18438210       0.00000000 </v>
    <v>       0.00000000       0.36876420       0.00000000 </v>
    <v>       0.00000000       0.00000000       0.05000000 </v>
   </varray>
  </crystal>
  <varray name="positions" >
   <v>       0.33333300       0.66666700       0.50000000 </v>
   <v>       0.00000000       0.00000000       0.50000000 </v>
  </varray>
 </structure>
 <calculation>
  <scstep>
   <time name="dav">    1.29    1.29</time>
   <time name="total">    1.95    1.95</time>
   <energy>
    <i name="alphaZ">      0.96238298 </i>
    <i name="ewald">    700.78133299 </i>
    <i name="hartreedc">   -944.07487945 </i>
    <i name="XCdc">     -7.23830456 </i>
    <i name="pawpsdc">    271.13288874 </i>
    <i name="pawaedc">   -240.36933646 </i>
    <i name="eentropy">      0.00000000 </i>
    <i name="bandstr">    -38.88813775 </i>
    <i name="atom">    318.07452744 </i>
    <i name="e_fr_energy">     60.38047392 </i>
    <i name="e_wo_entrp">     60.38047392 </i>
    <i name="e_0_energy">     60.38047392 </i>
   </energy>
  </scstep>
  <scstep>
   <time name="dav">    1.77    1.77</time>
   <time name="total">    1.77    1.77</time>
   <energy>
    <i name="e_fr_energy">     -8.75129892 </i>
    <i name="e_wo_entrp">     -8.75129892 </i>
    <i name="e_0_energy">     -8.75129892 </i>
   </energy>
  </scstep>
  <scstep>
   <time name="dav">    1.47    1.47</time>
   <time name="total">    1.47    1.47</time>
   <energy>
    <i name="e_fr_energy">    -17.65667830 </i>
    <i name="e_wo_entrp">    -17.65667830 </i>
    <i name="e_0_energy">    -17.65667830 </i>
   </energy>
  </scstep>
  <scstep>
   <time name="dav">    1.67    1.67</time>
   <time name="total">    1.67    1.67</time>
   <energy>
    <i name="e_fr_energy">    -17.76012853 </i>
    <i name="e_wo_entrp">    -17.76012853 </i>
    <i name="e_0_energy">    -17.76012853 </i>
   </energy>
  </scstep>
  <scstep>
   <time name="dav">    1.88    1.88</time>
   <time name="total">    2.06    2.06</time>
   <energy>
    <i name="e_fr_energy">    -17.76062519 </i>
    <i name="e_wo_entrp">    -17.76062519 </i>
    <i name="e_0_energy">    -17.76062519 </i>
   </energy>
  </scstep>
  <scstep>
   <time name="dav">    1.72    1.72</time>
   <time name="total">    2.54    2.54</time>
   <energy>
    <i name="e_fr_energy">    -14.09304299 </i>
    <i name="e_wo_entrp">    -14.09304299 </i>
    <i name="e_0_energy">    -14.09304299 </i>
   </energy>
  </scstep>
  <scstep>
   <time name="dav">    1.95    1.95</time>
   <time name="total">    2.77    2.78</time>
   <energy>
    <i name="e_fr_energy">    -14.00276942 </i>
    <i name="e_wo_entrp">    -14.00276942 </i>
    <i name="e_0_energy">    -14.00276942 </i>
   </energy>
  </scstep>
  <scstep>
   <time name="dav">    1.69    1.69</time>
   <time name="total">    2.52    2.52</time>
   <energy>
    <i name="e_fr_energy">    -13.89886909 </i>
    <i name="e_wo_entrp">    -13.89886909 </i>
    <i name="e_0_energy">    -13.89886909 </i>
   </energy>
  </scstep>
  <scstep>
   <time name="dav">    1.88    1.88</time>
   <time name="total">    2.70    2.70</time>
   <energy>
    <i name="e_fr_energy">    -13.88917370 </i>
    <i name="e_wo_entrp">    -13.88917370 </i>
    <i name="e_0_energy">    -13.88917370 </i>
   </energy>
  </scstep>
  <scstep>
   <time name="dav">    1.75    1.75</time>
   <time name="total">    2.58    2.58</time>
   <energy>
    <i name="e_fr_energy">    -13.87396552 </i>
    <i name="e_wo_entrp">    -13.87396552 </i>
    <i name="e_0_energy">    -13.87396552 </i>
   </energy>
  </scstep>
  <scstep>
   <time name="dav">    1.51    1.51</time>
   <time name="total">    2.33    2.33</time>
   <energy>
    <i name="e_fr_energy">    -13.87288238 </i>
    <i name="e_wo_entrp">    -13.87288238 </i>
    <i name="e_0_energy">    -13.87288238 </i>
   </energy>
  </scstep>
  <scstep>
   <time name="dav">    1.56    1.56</time>
   <time name="total">    2.38    2.38</time>
   <energy>
    <i name="e_fr_energy">    -13.86595425 </i>
    <i name="e_wo_entrp">    -13.86595425 </i>
    <i name="e_0_energy">    -13.86595425 </i>
   </energy>
  </scstep>
  <scstep>
   <time name="dav">    1.32    1.32</time>
   <time name="total">    2.13    2.13</time>
   <energy>
    <i name="e_fr_energy">    -13.86603029 </i>
    <i name="e_wo_entrp">    -13.86603029 </i>
    <i name="e_0_energy">    -13.86603029 </i>
   </energy>
  </scstep>
  <scstep>
   <time name="dav">    1.48    1.48</time>
   <time name="total">    2.29    2.29</time>
   <energy>
    <i name="e_fr_energy">    -13.86712748 </i>
    <i name="e_wo_entrp">    -13.86712748 </i>
    <i name="e_0_energy">    -13.86712748 </i>
   </energy>
  </scstep>
  <scstep>
   <time name="dav">    1.58    1.58</time>
   <time name="total">    2.39    2.39</time>
   <energy>
    <i name="e_fr_energy">    -13.86807409 </i>
    <i name="e_wo_entrp">    -13.86807409 </i>
    <i name="e_0_energy">    -13.86807409 </i>
   </energy>
  </scstep>
  <scstep>
   <time name="dav">    1.75    1.75</time>
   <time name="total">    2.56    2.56</time>
   <energy>
    <i name="e_fr_energy">    -13.86833542 </i>
    <i name="e_wo_entrp">    -13.86833542 </i>
    <i name="e_0_energy">    -13.86833542 </i>
   </energy>
  </scstep>
  <scstep>
   <time name="dav">    1.63    1.63</time>
   <time name="total">    2.44    2.44</time>
   <energy>
    <i name="e_fr_energy">    -13.86886852 </i>
    <i name="e_wo_entrp">    -13.86886852 </i>
    <i name="e_0_energy">    -13.86886852 </i>
   </energy>
  </scstep>
  <scstep>
   <time name="dav">    1.51    1.51</time>
   <time name="total">    2.32    2.33</time>
   <energy>
    <i name="e_fr_energy">    -13.86902171 </i>
    <i name="e_wo_entrp">    -13.86902171 </i>
    <i name="e_0_energy">    -13.86902171 </i>
   </energy>
  </scstep>
  <scstep>
   <time name="dav">    1.55    1.55</time>
   <time name="total">    2.18    2.18</time>
   <energy>
    <i name="alphaZ">      0.96238298 </i>
    <i name="ewald">    700.78133299 </i>
    <i name="hartreedc">   -989.77996008 </i>
    <i name="XCdc">     -5.32516843 </i>
    <i name="pawpsdc">    729.44313399 </i>
    <i name="pawaedc">   -698.96343633 </i>
    <i name="eentropy">      0.00000000 </i>
    <i name="bandstr">    -69.06189031 </i>
    <i name="atom">    318.07452744 </i>
    <i name="e_fr_energy">    -13.86907776 </i>
    <i name="e_wo_entrp">    -13.86907776 </i>
    <i name="e_0_energy">    -13.86907776 </i>
   </energy>
  </scstep>
  <structure>
   <crystal>
    <varray name="basis" >
     <v>       3.13127000       0.00000000       0.00000000 </v>
     <v>      -1.56563500       2.71176000       0.00000000 </v>
     <v>       0.00000000       0.00000000      20.00000000 </v>
    </varray>
    <i name="volume">    169.82505470 </i>
    <varray name="rec_basis" >
     <v>       0.31935924       0.18438210       0.00000000 </v>
     <v>       0.00000000       0.36876420       0.00000000 </v>
     <v>       0.00000000       0.00000000       0.05000000 </v>
    </varray>
   </crystal>
   <varray name="positions" >
    <v>       0.33333300       0.66666700       0.50000000 </v>
    <v>       0.00000000       0.00000000       0.50000000 </v>
   </varray>
  </structure>
  <varray name="forces" >
   <v>       0.00000000       0.00000000       0.00000000 </v>
   <v>       0.00000000      -0.00000000       0.00000000 </v>
  </varray>
  <varray name="stress" >
   <v>      -1.67014115       0.00000000      -0.00000000 </v>
   <v>       0.00000000      -1.67014193       0.00000000 </v>
   <v>       0.00000000       0.00000000      -0.06735549 </v>
  </varray>
  <energy>
   <i name="e_fr_energy">    -13.86907776 </i>
   <i name="e_wo_entrp">    -13.86907776 </i>
   <i name="e_0_energy">      0.00000000 </i>
  </energy>
  <time name="totalsc">   47.13   47.15</time>
  <eigenvalues>
   <array>
    <dimension dim="1">band</dimension>
    <dimension dim="2">kpoint</dimension>
    <dimension dim="3">spin</dimension>
    <field>eigene</field>
    <field>occ</field>
    <set>
     <set comment="spin 1">
      <set comment="kpoint 1">
       <r>  -17.5823    1.0000 </r>
       <r>   -6.1580    1.0000 </r>
       <r>   -4.6298    1.0000 </r>
       <r>   -4.6298    1.0000 </r>
       <r>   -1.0184    0.0000 </r>
       <r>    0.9382    0.0000 </r>
       <r>    1.3044    0.0000 </r>
       <r>    2.0457    0.0000 </r>
      </set>
      <set comment="kpoint 2">
       <r>  -17.4944    1.0000 </r>
       <r>   -6.0454    1.0000 </r>
       <r>   -5.0791    1.0000 </r>
       <r>   -4.6960    1.0000 </r>
       <r>   -0.7124    0.0000 </r>
       <r>    1.0717    0.0000 </r>
       <r>    1.4833    0.0000 </r>
       <r>    2.2512    0.0000 </r>
      </set>
      <set comment="kpoint 3">
       <r>  -17.2453    1.0000 </r>
       <r>   -6.0764    1.0000 </r>
       <r>   -5.7202    1.0000 </r>
       <r>   -4.8660    1.0000 </r>
       <r>   -0.0321    0.0000 </r>
       <r>    1.4340    0.0000 </r>
       <r>    2.0043    0.0000 </r>
       <r>    2.8130    0.0000 </r>
      </set>
      <set comment="kpoint 4">
       <r>  -16.8830    1.0000 </r>
       <r>   -7.1794    1.0000 </r>
       <r>   -5.2269    1.0000 </r>
       <r>   -5.0739    1.0000 </r>
       <r>    0.8071    0.0000 </r>
       <r>    1.8203    0.0000 </r>
       <r>    2.8417    0.0000 </r>
       <r>    3.3537    0.0000 </r>
      </set>
      <set comment="kpoint 5">
       <r>  -16.5016    1.0000 </r>
       <r>   -8.1160    1.0000 </r>
       <r>   -5.2522    1.0000 </r>
       <r>   -4.6704    1.0000 </r>
       <r>    1.6534    0.0000 </r>
       <r>    1.7731    0.0000 </r>
       <r>    3.8119    0.0000 </r>
       <r>    4.2248    0.0000 </r>
      </set>
      <set comment="kpoint 6">
       <r>  -16.2444    1.0000 </r>
       <r>   -8.6660    1.0000 </r>
       <r>   -5.3531    1.0000 </r>
       <r>   -4.2624    1.0000 </r>
       <r>    1.4454    0.0000 </r>
       <r>    2.1446    0.0000 </r>
       <r>    4.2555    0.0000 </r>
       <r>    5.2834    0.0000 </r>
      </set>
      <set comment="kpoint 7">
       <r>  -17.3258    1.0000 </r>
       <r>   -5.8264    1.0000 </r>
       <r>   -5.7568    1.0000 </r>
       <r>   -4.8517    1.0000 </r>
       <r>   -0.2281    0.0000 </r>
       <r>    1.3213    0.0000 </r>
       <r>    1.8334    0.0000 </r>
       <r>    2.6384    0.0000 </r>
      </set>
      <set comment="kpoint 8">
       <r>  -17.0188    1.0000 </r>
       <r>   -6.7195    1.0000 </r>
       <r>   -5.4153    1.0000 </r>
       <r>   -5.1265    1.0000 </r>
       <r>    0.5326    0.0000 </r>
       <r>    1.7146    0.0000 </r>
       <r>    2.5168    0.0000 </r>
       <r>    3.1476    0.0000 </r>
      </set>
      <set comment="kpoint 9">
       <r>  -16.6424    1.0000 </r>
       <r>   -7.6733    1.0000 </r>
       <r>   -5.4060    1.0000 </r>
       <r>   -4.8828    1.0000 </r>
       <r>    1.4347    0.0000 </r>
       <r>    1.9037    0.0000 </r>
       <r>    3.5021    0.0000 </r>
       <r>    3.8213    0.0000 </r>
      </set>
      <set comment="kpoint 10">
       <r>  -16.3144    1.0000 </r>
       <r>   -8.3847    1.0000 </r>
       <r>   -5.6053    1.0000 </r>
       <r>   -4.3809    1.0000 </r>
       <r>    1.6655    0.0000 </r>
       <r>    2.2480    0.0000 </r>
       <r>    4.2032    0.0000 </r>
       <r>    4.8317    0.0000 </r>
      </set>
      <set comment="kpoint 11">
       <r>  -16.1802    1.0000 </r>
       <r>   -8.6523    1.0000 </r>
       <r>   -5.6768    1.0000 </r>
       <r>   -4.1607    1.0000 </r>
       <r>    1.4750    0.0000 </r>
       <r>    2.5478    0.0000 </r>
       <r>    4.4559    0.0000 </r>
       <r>    5.5576    0.0000 </r>
      </set>
      <set comment="kpoint 12">
       <r>  -16.6943    1.0000 </r>
       <r>   -7.4039    1.0000 </r>
       <r>   -5.6151    1.0000 </r>
       <r>   -4.9599    1.0000 </r>
       <r>    1.3827    0.0000 </r>
       <r>    1.9471    0.0000 </r>
       <r>    3.3624    0.0000 </r>
       <r>    3.7250    0.0000 </r>
      </set>
      <set comment="kpoint 13">
       <r>  -16.3602    1.0000 </r>
       <r>   -7.9926    1.0000 </r>
       <r>   -6.0899    1.0000 </r>
       <r>   -4.4600    1.0000 </r>
       <r>    1.9114    0.0000 </r>
       <r>    2.3867    0.0000 </r>
       <r>    4.4809    0.0000 </r>
       <r>    4.6310    0.0000 </r>
      </set>
      <set comment="kpoint 14">
       <r>  -16.1406    1.0000 </r>
       <r>   -8.3481    1.0000 </r>
       <r>   -6.3650    1.0000 </r>
       <r>   -4.1066    1.0000 </r>
       <r>    1.7515    0.0000 </r>
       <r>    3.2063    0.0000 </r>
       <r>    4.6443    0.0000 </r>
       <r>    5.2421    0.0000 </r>
      </set>
      <set comment="kpoint 15">
       <r>  -16.1281    1.0000 </r>
       <r>   -8.0624    1.0000 </r>
       <r>   -6.8143    1.0000 </r>
       <r>   -4.0922    1.0000 </r>
       <r>    1.9521    0.0000 </r>
       <r>    3.4485    0.0000 </r>
       <r>    4.9041    0.0000 </r>
       <r>    4.9879    0.0000 </r>
      </set>
      <set comment="kpoint 16">
       <r>  -16.0372    1.0000 </r>
       <r>   -7.9950    1.0000 </r>
       <r>   -7.1803    1.0000 </r>
       <r>   -3.9425    1.0000 </r>
       <r>    2.0079    0.0000 </r>
       <r>    4.0002    0.0000 </r>
       <r>    4.5672    0.0000 </r>
       <r>    5.0484    0.0000 </r>
      </set>
     </set>
    </set>
   </array>
  </eigenvalues>
  <separator name="orbital magnetization" >
   <v name="MAGDIPOLOUT">      0.00000000      0.00000000      0.00000000</v>
  </separator>
  <dos>
   <i name="efermi">     -3.93363725 </i>
   <total>
    <array>
     <dimension dim="1">gridpoints</dimension>
     <dimension dim="2">spin</dimension>
     <field>energy</field>
     <field>total</field>
     <field>integrated</field>
     <set>
      <set comment="spin 1">
       <r>   -18.7393     0.0000     0.0000 </r>
       <r>   -18.6544     0.0000     0.0000 </r>
       <r>   -18.5696     0.0000     0.0000 </r>
       <r>   -18.4848     0.0000     0.0000 </r>
       <r>   -18.3999     0.0000     0.0000 </r>
       <r>   -18.3151     0.0000     0.0000 </r>
       <r>   -18.2302     0.0000     0.0000 </r>
       <r>   -18.1454     0.0000     0.0000 </r>
       <r>   -18.0605     0.0000     0.0000 </r>
       <r>   -17.9757     0.0000     0.0000 </r>
       <r>   -17.8908     0.0000     0.0000 </r>
       <r>   -17.8060     0.0000     0.0000 </r>
       <r>   -17.7211     0.0000     0.0000 </r>
       <r>   -17.6363     0.0000     0.0000 </r>
       <r>   -17.5514     0.3963     0.0061 </r>
       <r>   -17.4666     0.6224     0.0664 </r>
       <r>   -17.3818     0.7271     0.1237 </r>
       <r>   -17.2969     0.7727     0.1890 </r>
       <r>   -17.2121     0.7513     0.2524 </r>
       <r>   -17.1272     0.8036     0.3183 </r>
       <r>   -17.0424     0.8560     0.3887 </r>
       <r>   -16.9575     0.8856     0.4624 </r>
       <r>   -16.8727     0.9319     0.5394 </r>
       <r>   -16.7878     0.9874     0.6209 </r>
       <r>   -16.7030     1.0428     0.7070 </r>
       <r>   -16.6181     1.1970     0.8020 </r>
       <r>   -16.5333     1.3268     0.9090 </r>
       <r>   -16.4484     1.4718     1.0275 </r>
       <r>   -16.3636     1.6260     1.1589 </r>
       <r>   -16.2788     2.7462     1.3432 </r>
       <r>   -16.1939     2.7150     1.6369 </r>
       <r>   -16.1091     2.4124     1.8576 </r>
       <r>   -16.0242     0.0000     2.0000 </r>
       <r>   -15.9394     0.0000     2.0000 </r>
       <r>   -15.8545     0.0000     2.0000 </r>
       <r>   -15.7697     0.0000     2.0000 </r>
       <r>   -15.6848     0.0000     2.0000 </r>
       <r>   -15.6000     0.0000     2.0000 </r>
       <r>   -15.5151     0.0000     2.0000 </r>
       <r>   -15.4303     0.0000     2.0000 </r>
       <r>   -15.3454     0.0000     2.0000 </r>
       <r>   -15.2606     0.0000     2.0000 </r>
       <r>   -15.1758     0.0000     2.0000 </r>
       <r>   -15.0909     0.0000     2.0000 </r>
       <r>   -15.0061     0.0000     2.0000 </r>
       <r>   -14.9212     0.0000     2.0000 </r>
       <r>   -14.8364     0.0000     2.0000 </r>
       <r>   -14.7515     0.0000     2.0000 </r>
       <r>   -14.6667     0.0000     2.0000 </r>
       <r>   -14.5818     0.0000     2.0000 </r>
       <r>   -14.4970     0.0000     2.0000 </r>
       <r>   -14.4121     0.0000     2.0000 </r>
       <r>   -14.3273     0.0000     2.0000 </r>
       <r>   -14.2424     0.0000     2.0000 </r>
       <r>   -14.1576     0.0000     2.0000 </r>
       <r>   -14.0728     0.0000     2.0000 </r>
       <r>   -13.9879     0.0000     2.0000 </r>
       <r>   -13.9031     0.0000     2.0000 </r>
       <r>   -13.8182     0.0000     2.0000 </r>
       <r>   -13.7334     0.0000     2.0000 </r>
       <r>   -13.6485     0.0000     2.0000 </r>
       <r>   -13.5637     0.0000     2.0000 </r>
       <r>   -13.4788     0.0000     2.0000 </r>
       <r>   -13.3940     0.0000     2.0000 </r>
       <r>   -13.3091     0.0000     2.0000 </r>
       <r>   -13.2243     0.0000     2.0000 </r>
       <r>   -13.1394     0.0000     2.0000 </r>
       <r>   -13.0546     0.0000     2.0000 </r>
       <r>   -12.9698     0.0000     2.0000 </r>
       <r>   -12.8849     0.0000     2.0000 </r>
       <r>   -12.8001     0.0000     2.0000 </r>
       <r>   -12.7152     0.0000     2.0000 </r>
       <r>   -12.6304     0.0000     2.0000 </r>
       <r>   -12.5455     0.0000     2.0000 </r>
       <r>   -12.4607     0.0000     2.0000 </r>
       <r>   -12.3758     0.0000     2.0000 </r>
       <r>   -12.2910     0.0000     2.0000 </r>
       <r>   -12.2061     0.0000     2.0000 </r>
       <r>   -12.1213     0.0000     2.0000 </r>
       <r>   -12.0364     0.0000     2.0000 </r>
       <r>   -11.9516     0.0000     2.0000 </r>
       <r>   -11.8668     0.0000     2.0000 </r>
       <r>   -11.7819     0.0000     2.0000 </r>
       <r>   -11.6971     0.0000     2.0000 </r>
       <r>   -11.6122     0.0000     2.0000 </r>
       <r>   -11.5274     0.0000     2.0000 </r>
       <r>   -11.4425     0.0000     2.0000 </r>
       <r>   -11.3577     0.0000     2.0000 </r>
       <r>   -11.2728     0.0000     2.0000 </r>
       <r>   -11.1880     0.0000     2.0000 </r>
       <r>   -11.1031     0.0000     2.0000 </r>
       <r>   -11.0183     0.0000     2.0000 </r>
       <r>   -10.9334     0.0000     2.0000 </r>
       <r>   -10.8486     0.0000     2.0000 </r>
       <r>   -10.7638     0.0000     2.0000 </r>
       <r>   -10.6789     0.0000     2.0000 </r>
       <r>   -10.5941     0.0000     2.0000 </r>
       <r>   -10.5092     0.0000     2.0000 </r>
       <r>   -10.4244     0.0000     2.0000 </r>
       <r>   -10.3395     0.0000     2.0000 </r>
       <r>   -10.2547     0.0000     2.0000 </r>
       <r>   -10.1698     0.0000     2.0000 </r>
       <r>   -10.0850     0.0000     2.0000 </r>
       <r>   -10.0001     0.0000     2.0000 </r>
       <r>    -9.9153     0.0000     2.0000 </r>
       <r>    -9.8304     0.0000     2.0000 </r>
       <r>    -9.7456     0.0000     2.0000 </r>
       <r>    -9.6608     0.0000     2.0000 </r>
       <r>    -9.5759     0.0000     2.0000 </r>
       <r>    -9.4911     0.0000     2.0000 </r>
       <r>    -9.4062     0.0000     2.0000 </r>
       <r>    -9.3214     0.0000     2.0000 </r>
       <r>    -9.2365     0.0000     2.0000 </r>
       <r>    -9.1517     0.0000     2.0000 </r>
       <r>    -9.0668     0.0000     2.0000 </r>
       <r>    -8.9820     0.0000     2.0000 </r>
       <r>    -8.8971     0.0000     2.0000 </r>
       <r>    -8.8123     0.0000     2.0000 </r>
       <r>    -8.7274     0.0000     2.0000 </r>
       <r>    -8.6426     0.7436     2.0617 </r>
       <r>    -8.5578     0.9264     2.1325 </r>
       <r>    -8.4729     1.1092     2.2189 </r>
       <r>    -8.3881     1.2920     2.3207 </r>
       <r>    -8.3032     1.2568     2.4252 </r>
       <r>    -8.2184     1.4356     2.5395 </r>
       <r>    -8.1335     1.6144     2.6689 </r>
       <r>    -8.0487     2.1044     2.8158 </r>
       <r>    -7.9638     0.7001     3.0051 </r>
       <r>    -7.8790     0.6784     3.0636 </r>
       <r>    -7.7941     0.6567     3.1202 </r>
       <r>    -7.7093     0.6350     3.1750 </r>
       <r>    -7.6244     0.5881     3.2274 </r>
       <r>    -7.5396     0.5225     3.2745 </r>
       <r>    -7.4548     0.4569     3.3160 </r>
       <r>    -7.3699     0.4142     3.3524 </r>
       <r>    -7.2851     0.4058     3.3872 </r>
       <r>    -7.2002     0.3973     3.4213 </r>
       <r>    -7.1154     0.6612     3.4888 </r>
       <r>    -7.0305     0.6544     3.5446 </r>
       <r>    -6.9457     0.6477     3.5998 </r>
       <r>    -6.8608     0.6409     3.6545 </r>
       <r>    -6.7760     0.6469     3.7088 </r>
       <r>    -6.6911     0.6371     3.7637 </r>
       <r>    -6.6063     0.6666     3.8190 </r>
       <r>    -6.5214     0.6961     3.8768 </r>
       <r>    -6.4366     0.7256     3.9371 </r>
       <r>    -6.3518     0.7763     4.0003 </r>
       <r>    -6.2669     0.7978     4.0670 </r>
       <r>    -6.1821     0.8194     4.1356 </r>
       <r>    -6.0972     1.3168     4.2205 </r>
       <r>    -6.0124     1.9380     4.3822 </r>
       <r>    -5.9275     1.4035     4.5240 </r>
       <r>    -5.8427     0.8690     4.6204 </r>
       <r>    -5.7578     0.7938     4.6872 </r>
       <r>    -5.6730     1.7634     4.8158 </r>
       <r>    -5.5881     2.3698     4.9890 </r>
       <r>    -5.5033     3.0466     5.2187 </r>
       <r>    -5.4184     3.7233     5.5059 </r>
       <r>    -5.3336     2.3340     5.7489 </r>
       <r>    -5.2488     1.3207     5.9097 </r>
       <r>    -5.1639     0.1667     5.9371 </r>
       <r>    -5.0791     2.7283     6.0326 </r>
       <r>    -4.9942     2.6509     6.2681 </r>
       <r>    -4.9094     2.0707     6.4738 </r>
       <r>    -4.8245     2.0852     6.6423 </r>
       <r>    -4.7397     1.7498     6.8049 </r>
       <r>    -4.6548     1.4959     6.9584 </r>
       <r>    -4.5700     0.9771     7.0460 </r>
       <r>    -4.4851     1.0371     7.1315 </r>
       <r>    -4.4003     1.3178     7.2307 </r>
       <r>    -4.3154     1.7421     7.3591 </r>
       <r>    -4.2306     2.4878     7.5467 </r>
       <r>    -4.1458     1.6298     7.7027 </r>
       <r>    -4.0609     1.5302     7.8537 </r>
       <r>    -3.9761     0.9082     7.9571 </r>
       <r>    -3.8912     0.0000     8.0000 </r>
       <r>    -3.8064     0.0000     8.0000 </r>
       <r>    -3.7215     0.0000     8.0000 </r>
       <r>    -3.6367     0.0000     8.0000 </r>
       <r>    -3.5518     0.0000     8.0000 </r>
       <r>    -3.4670     0.0000     8.0000 </r>
       <r>    -3.3821     0.0000     8.0000 </r>
       <r>    -3.2973     0.0000     8.0000 </r>
       <r>    -3.2124     0.0000     8.0000 </r>
       <r>    -3.1276     0.0000     8.0000 </r>
       <r>    -3.0428     0.0000     8.0000 </r>
       <r>    -2.9579     0.0000     8.0000 </r>
       <r>    -2.8731     0.0000     8.0000 </r>
       <r>    -2.7882     0.0000     8.0000 </r>
       <r>    -2.7034     0.0000     8.0000 </r>
       <r>    -2.6185     0.0000     8.0000 </r>
       <r>    -2.5337     0.0000     8.0000 </r>
       <r>    -2.4488     0.0000     8.0000 </r>
       <r>    -2.3640     0.0000     8.0000 </r>
       <r>    -2.2791     0.0000     8.0000 </r>
       <r>    -2.1943     0.0000     8.0000 </r>
       <r>    -2.1094     0.0000     8.0000 </r>
       <r>    -2.0246     0.0000     8.0000 </r>
       <r>    -1.9398     0.0000     8.0000 </r>
       <r>    -1.8549     0.0000     8.0000 </r>
       <r>    -1.7701     0.0000     8.0000 </r>
       <r>    -1.6852     0.0000     8.0000 </r>
       <r>    -1.6004     0.0000     8.0000 </r>
       <r>    -1.5155     0.0000     8.0000 </r>
       <r>    -1.4307     0.0000     8.0000 </r>
       <r>    -1.3458     0.0000     8.0000 </r>
       <r>    -1.2610     0.0000     8.0000 </r>
       <r>    -1.1761     0.0000     8.0000 </r>
       <r>    -1.0913     0.0000     8.0000 </r>
       <r>    -1.0064     0.0126     8.0001 </r>
       <r>    -0.9216     0.1025     8.0050 </r>
       <r>    -0.8368     0.1924     8.0175 </r>
       <r>    -0.7519     0.2823     8.0376 </r>
       <r>    -0.6671     0.2129     8.0591 </r>
       <r>    -0.5822     0.2281     8.0778 </r>
       <r>    -0.4974     0.2433     8.0978 </r>
       <r>    -0.4125     0.2585     8.1191 </r>
       <r>    -0.3277     0.2737     8.1416 </r>
       <r>    -0.2428     0.2889     8.1655 </r>
       <r>    -0.1580     0.2926     8.1902 </r>
       <r>    -0.0731     0.2938     8.2151 </r>
       <r>     0.0117     0.3000     8.2402 </r>
       <r>     0.0966     0.3109     8.2661 </r>
       <r>     0.1814     0.3217     8.2930 </r>
       <r>     0.2662     0.3326     8.3207 </r>
       <r>     0.3511     0.3435     8.3494 </r>
       <r>     0.4359     0.3544     8.3790 </r>
       <r>     0.5208     0.3652     8.4095 </r>
       <r>     0.6056     0.3575     8.4398 </r>
       <r>     0.6905     0.3627     8.4704 </r>
       <r>     0.7753     0.3679     8.5013 </r>
       <r>     0.8602     0.3775     8.5329 </r>
       <r>     0.9450     0.4276     8.5656 </r>
       <r>     1.0299     0.9120     8.6224 </r>
       <r>     1.1147     0.8375     8.7009 </r>
       <r>     1.1996     0.9008     8.7746 </r>
       <r>     1.2844     0.9641     8.8538 </r>
       <r>     1.3692     1.2118     8.9443 </r>
       <r>     1.4541     4.4372     9.0943 </r>
       <r>     1.5389     3.3428     9.3674 </r>
       <r>     1.6238     4.1784     9.6865 </r>
       <r>     1.7086     2.7911     9.9774 </r>
       <r>     1.7935     4.4421    10.2640 </r>
       <r>     1.8783     4.3601    10.6909 </r>
       <r>     1.9632     2.4138    11.0142 </r>
       <r>     2.0480     1.4288    11.2121 </r>
       <r>     2.1329     1.6951    11.3446 </r>
       <r>     2.2177     2.1331    11.5150 </r>
       <r>     2.3026     1.8091    11.6846 </r>
       <r>     2.3874     1.4158    11.8268 </r>
       <r>     2.4722     1.3043    11.9422 </r>
       <r>     2.5571     1.1738    12.0470 </r>
       <r>     2.6419     1.1786    12.1467 </r>
       <r>     2.7268     1.2111    12.2481 </r>
       <r>     2.8116     1.2436    12.3523 </r>
       <r>     2.8965     1.2593    12.4584 </r>
       <r>     2.9813     1.2780    12.5660 </r>
       <r>     3.0662     1.2967    12.6752 </r>
       <r>     3.1510     1.2909    12.7860 </r>
       <r>     3.2359     1.2517    12.8940 </r>
       <r>     3.3207     1.2500    13.0001 </r>
       <r>     3.4056     1.2509    13.1062 </r>
       <r>     3.4904     1.2381    13.2121 </r>
       <r>     3.5752     1.2511    13.3174 </r>
       <r>     3.6601     1.2702    13.4244 </r>
       <r>     3.7449     1.2720    13.5328 </r>
       <r>     3.8298     1.2268    13.6384 </r>
       <r>     3.9146     1.2554    13.7437 </r>
       <r>     3.9995     1.2840    13.8515 </r>
       <r>     4.0843     1.1568    13.9640 </r>
       <r>     4.1692     1.2096    14.0644 </r>
       <r>     4.2540     1.6918    14.1802 </r>
       <r>     4.3389     1.8886    14.3531 </r>
       <r>     4.4237     1.5711    14.4999 </r>
       <r>     4.5086     1.6294    14.6303 </r>
       <r>     4.5934     2.5419    14.8010 </r>
       <r>     4.6782     1.9418    15.0318 </r>
       <r>     4.7631     1.5396    15.1795 </r>
       <r>     4.8479     1.1282    15.2929 </r>
       <r>     4.9328     0.8359    15.3718 </r>
       <r>     5.0176     2.0002    15.4605 </r>
       <r>     5.1025     1.4132    15.6372 </r>
       <r>     5.1873     1.1929    15.7477 </r>
       <r>     5.2722     0.8026    15.8341 </r>
       <r>     5.3570     0.8380    15.9160 </r>
       <r>     5.4419     0.4834    15.9720 </r>
       <r>     5.5267     0.1289    15.9980 </r>
       <r>     5.6116     0.0000    16.0000 </r>
       <r>     5.6964     0.0000    16.0000 </r>
       <r>     5.7812     0.0000    16.0000 </r>
       <r>     5.8661     0.0000    16.0000 </r>
       <r>     5.9509     0.0000    16.0000 </r>
       <r>     6.0358     0.0000    16.0000 </r>
       <r>     6.1206     0.0000    16.0000 </r>
       <r>     6.2055     0.0000    16.0000 </r>
       <r>     6.2903     0.0000    16.0000 </r>
       <r>     6.3752     0.0000    16.0000 </r>
       <r>     6.4600     0.0000    16.0000 </r>
       <r>     6.5449     0.0000    16.0000 </r>
       <r>     6.6297     0.0000    16.0000 </r>
       <r>     6.7146     0.0000    16.0000 </r>
      </set>
     </set>
    </array>
   </total>
   <partial>
    <array>
     <dimension dim="1">gridpoints</dimension>
     <dimension dim="2">spin</dimension>
     <dimension dim="3">ion</dimension>
     <field>energy</field>
     <field>  s</field>
     <field> py</field>
     <field> pz</field>
     <field> px</field>
     <field>dxy</field>
     <field>dyz</field>
     <field>dz2</field>
     <field>dxz</field>
     <field>dx2</field>
     <set>
      <set comment="ion 1">
       <set comment="spin 1">
        <r>   -18.7393     0.0000     0.0000     0.0000     0.0000     0.0000     0.0000     0.0000     0.0000     0.0000 </r>
        <r>   -18.6544     0.0000     0.0000     0.0000     0.0000     0.0000     0.0000     0.0000     0.0000     0.0000 </r>
        <r>   -18.5696     0.0000     0.0000     0.0000     0.0000     0.0000     0.0000     0.0000     0.0000     0.0000 </r>
        <r>   -18.4848     0.0000     0.0000     0.0000     0.0000     0.0000     0.0000     0.0000     0.0000     0.0000 </r>
        <r>   -18.3999     0.0000     0.0000     0.0000     0.0000     0.0000     0.0000     0.0000     0.0000     0.0000 </r>
        <r>   -18.3151     0.0000     0.0000     0.0000     0.0000     0.0000     0.0000     0.0000     0.0000     0.0000 </r>
        <r>   -18.2302     0.0000     0.0000     0.0000     0.0000     0.0000     0.0000     0.0000     0.0000     0.0000 </r>
        <r>   -18.1454     0.0000     0.0000     0.0000     0.0000     0.0000     0.0000     0.0000     0.0000     0.0000 </r>
        <r>   -18.0605     0.0000     0.0000     0.0000     0.0000     0.0000     0.0000     0.0000     0.0000     0.0000 </r>
        <r>   -17.9757     0.0000     0.0000     0.0000     0.0000     0.0000     0.0000     0.0000     0.0000     0.0000 </r>
        <r>   -17.8908     0.0000     0.0000     0.0000     0.0000     0.0000     0.0000     0.0000     0.0000     0.0000 </r>
        <r>   -17.8060     0.0000     0.0000     0.0000     0.0000     0.0000     0.0000     0.0000     0.0000     0.0000 </r>
        <r>   -17.7211     0.0000     0.0000     0.0000     0.0000     0.0000     0.0000     0.0000     0.0000     0.0000 </r>
        <r>   -17.6363     0.0000     0.0000     0.0000     0.0000     0.0000     0.0000     0.0000     0.0000     0.0000 </r>
        <r>   -17.5514     0.0418     0.0002     0.0000     0.0005     0.0000     0.0000     0.0000     0.0000     0.0000 </r>
        <r>   -17.4666     0.0622     0.0016     0.0000     0.0016     0.0000     0.0000     0.0000     0.0000     0.0000 </r>
        <r>   -17.3818     0.0703     0.0024     0.0000     0.0027     0.0000     0.0000     0.0000     0.0000     0.0000 </r>
        <r>   -17.2969     0.0711     0.0036     0.0000     0.0040     0.0000     0.0000     0.0000     0.0000     0.0000 </r>
        <r>   -17.2121     0.0637     0.0052     0.0000     0.0053     0.0000     0.0000     0.0000     0.0000     0.0000 </r>
        <r>   -17.1272     0.0654     0.0059     0.0000     0.0068     0.0000     0.0000     0.0000     0.0000     0.0000 </r>
        <r>   -17.0424     0.0669     0.0067     0.0000     0.0084     0.0000     0.0000     0.0000     0.0000     0.0000 </r>
        <r>   -16.9575     0.0611     0.0095     0.0000     0.0106     0.0000     0.0000     0.0000     0.0000     0.0000 </r>
        <r>   -16.8727     0.0589     0.0115     0.0000     0.0125     0.0000     0.0000     0.0000     0.0000     0.0000 </r>
        <r>   -16.7878     0.0587     0.0127     0.0000     0.0148     0.0000     0.0000     0.0000     0.0000     0.0000 </r>
        <r>   -16.7030     0.0582     0.0139     0.0000     0.0171     0.0000     0.0000     0.0000     0.0000     0.0000 </r>
        <r>   -16.6181     0.0544     0.0192     0.0000     0.0228     0.0000     0.0000     0.0000     0.0000     0.0000 </r>
        <r>   -16.5333     0.0527     0.0224     0.0000     0.0279     0.0000     0.0000     0.0000     0.0000     0.0000 </r>
        <r>   -16.4484     0.0516     0.0251     0.0000     0.0341     0.0000     0.0000     0.0000     0.0000     0.0000 </r>
        <r>   -16.3636     0.0504     0.0277     0.0000     0.0410     0.0000     0.0000     0.0000     0.0000     0.0000 </r>
        <r>   -16.2788     0.0550     0.0511     0.0000     0.0795     0.0000     0.0000     0.0000     0.0000     0.0000 </r>
        <r>   -16.1939     0.0434     0.0522     0.0000     0.0820     0.0000     0.0000     0.0000     0.0000     0.0000 </r>
        <r>   -16.1091     0.0167     0.0608     0.0000     0.0682     0.0000     0.0000     0.0000     0.0000     0.0000 </r>
        <r>   -16.0242     0.0000     0.0000     0.0000     0.0000     0.0000     0.0000     0.0000     0.0000     0.0000 </r>
        <r>   -15.9394     0.0000     0.0000     0.0000     0.0000     0.0000     0.0000     0.0000     0.0000     0.0000 </r>
        <r>   -15.8545     0.0000     0.0000     0.0000     0.0000     0.0000     0.0000     0.0000     0.0000     0.0000 </r>
        <r>   -15.7697     0.0000     0.0000     0.0000     0.0000     0.0000     0.0000     0.0000     0.0000     0.0000 </r>
        <r>   -15.6848     0.0000     0.0000     0.0000     0.0000     0.0000     0.0000     0.0000     0.0000     0.0000 </r>
        <r>   -15.6000     0.0000     0.0000     0.0000     0.0000     0.0000     0.0000     0.0000     0.0000     0.0000 </r>
        <r>   -15.5151     0.0000     0.0000     0.0000     0.0000     0.0000     0.0000     0.0000     0.0000     0.0000 </r>
        <r>   -15.4303     0.0000     0.0000     0.0000     0.0000     0.0000     0.0000     0.0000     0.0000     0.0000 </r>
        <r>   -15.3454     0.0000     0.0000     0.0000     0.0000     0.0000     0.0000     0.0000     0.0000     0.0000 </r>
        <r>   -15.2606     0.0000     0.0000     0.0000     0.0000     0.0000     0.0000     0.0000     0.0000     0.0000 </r>
        <r>   -15.1758     0.0000     0.0000     0.0000     0.0000     0.0000     0.0000     0.0000     0.0000     0.0000 </r>
        <r>   -15.0909     0.0000     0.0000     0.0000     0.0000     0.0000     0.0000     0.0000     0.0000     0.0000 </r>
        <r>   -15.0061     0.0000     0.0000     0.0000     0.0000     0.0000     0.0000     0.0000     0.0000     0.0000 </r>
        <r>   -14.9212     0.0000     0.0000     0.0000     0.0000     0.0000     0.0000     0.0000     0.0000     0.0000 </r>
        <r>   -14.8364     0.0000     0.0000     0.0000     0.0000     0.0000     0.0000     0.0000     0.0000     0.0000 </r>
        <r>   -14.7515     0.0000     0.0000     0.0000     0.0000     0.0000     0.0000     0.0000     0.0000     0.0000 </r>
        <r>   -14.6667     0.0000     0.0000     0.0000     0.0000     0.0000     0.0000     0.0000     0.0000     0.0000 </r>
        <r>   -14.5818     0.0000     0.0000     0.0000     0.0000     0.0000     0.0000     0.0000     0.0000     0.0000 </r>
        <r>   -14.4970     0.0000     0.0000     0.0000     0.0000     0.0000     0.0000     0.0000     0.0000     0.0000 </r>
        <r>   -14.4121     0.0000     0.0000     0.0000     0.0000     0.0000     0.0000     0.0000     0.0000     0.0000 </r>
        <r>   -14.3273     0.0000     0.0000     0.0000     0.0000     0.0000     0.0000     0.0000     0.0000     0.0000 </r>
        <r>   -14.2424     0.0000     0.0000     0.0000     0.0000     0.0000     0.0000     0.0000     0.0000     0.0000 </r>
        <r>   -14.1576     0.0000     0.0000     0.0000     0.0000     0.0000     0.0000     0.0000     0.0000     0.0000 </r>
        <r>   -14.0728     0.0000     0.0000     0.0000     0.0000     0.0000     0.0000     0.0000     0.0000     0.0000 </r>
        <r>   -13.9879     0.0000     0.0000     0.0000     0.0000     0.0000     0.0000     0.0000     0.0000     0.0000 </r>
        <r>   -13.9031     0.0000     0.0000     0.0000     0.0000     0.0000     0.0000     0.0000     0.0000     0.0000 </r>
        <r>   -13.8182     0.0000     0.0000     0.0000     0.0000     0.0000     0.0000     0.0000     0.0000     0.0000 </r>
        <r>   -13.7334     0.0000     0.0000     0.0000     0.0000     0.0000     0.0000     0.0000     0.0000     0.0000 </r>
        <r>   -13.6485     0.0000     0.0000     0.0000     0.0000     0.0000     0.0000     0.0000     0.0000     0.0000 </r>
        <r>   -13.5637     0.0000     0.0000     0.0000     0.0000     0.0000     0.0000     0.0000     0.0000     0.0000 </r>
        <r>   -13.4788     0.0000     0.0000     0.0000     0.0000     0.0000     0.0000     0.0000     0.0000     0.0000 </r>
        <r>   -13.3940     0.0000     0.0000     0.0000     0.0000     0.0000     0.0000     0.0000     0.0000     0.0000 </r>
        <r>   -13.3091     0.0000     0.0000     0.0000     0.0000     0.0000     0.0000     0.0000     0.0000     0.0000 </r>
        <r>   -13.2243     0.0000     0.0000     0.0000     0.0000     0.0000     0.0000     0.0000     0.0000     0.0000 </r>
        <r>   -13.1394     0.0000     0.0000     0.0000     0.0000     0.0000     0.0000     0.0000     0.0000     0.0000 </r>
        <r>   -13.0546     0.0000     0.0000     0.0000     0.0000     0.0000     0.0000     0.0000     0.0000     0.0000 </r>
        <r>   -12.9698     0.0000     0.0000     0.0000     0.0000     0.0000     0.0000     0.0000     0.0000     0.0000 </r>
        <r>   -12.8849     0.0000     0.0000     0.0000     0.0000     0.0000     0.0000     0.0000     0.0000     0.0000 </r>
        <r>   -12.8001     0.0000     0.0000     0.0000     0.0000     0.0000     0.0000     0.0000     0.0000     0.0000 </r>
        <r>   -12.7152     0.0000     0.0000     0.0000     0.0000     0.0000     0.0000     0.0000     0.0000     0.0000 </r>
        <r>   -12.6304     0.0000     0.0000     0.0000     0.0000     0.0000     0.0000     0.0000     0.0000     0.0000 </r>
        <r>   -12.5455     0.0000     0.0000     0.0000     0.0000     0.0000     0.0000     0.0000     0.0000     0.0000 </r>
        <r>   -12.4607     0.0000     0.0000     0.0000     0.0000     0.0000     0.0000     0.0000     0.0000     0.0000 </r>
        <r>   -12.3758     0.0000     0.0000     0.0000     0.0000     0.0000     0.0000     0.0000     0.0000     0.0000 </r>
        <r>   -12.2910     0.0000     0.0000     0.0000     0.0000     0.0000     0.0000     0.0000     0.0000     0.0000 </r>
        <r>   -12.2061     0.0000     0.0000     0.0000     0.0000     0.0000     0.0000     0.0000     0.0000     0.0000 </r>
        <r>   -12.1213     0.0000     0.0000     0.0000     0.0000     0.0000     0.0000     0.0000     0.0000     0.0000 </r>
        <r>   -12.0364     0.0000     0.0000     0.0000     0.0000     0.0000     0.0000     0.0000     0.0000     0.0000 </r>
        <r>   -11.9516     0.0000     0.0000     0.0000     0.0000     0.0000     0.0000     0.0000     0.0000     0.0000 </r>
        <r>   -11.8668     0.0000     0.0000     0.0000     0.0000     0.0000     0.0000     0.0000     0.0000     0.0000 </r>
        <r>   -11.7819     0.0000     0.0000     0.0000     0.0000     0.0000     0.0000     0.0000     0.0000     0.0000 </r>
        <r>   -11.6971     0.0000     0.0000     0.0000     0.0000     0.0000     0.0000     0.0000     0.0000     0.0000 </r>
        <r>   -11.6122     0.0000     0.0000     0.0000     0.0000     0.0000     0.0000     0.0000     0.0000     0.0000 </r>
        <r>   -11.5274     0.0000     0.0000     0.0000     0.0000     0.0000     0.0000     0.0000     0.0000     0.0000 </r>
        <r>   -11.4425     0.0000     0.0000     0.0000     0.0000     0.0000     0.0000     0.0000     0.0000     0.0000 </r>
        <r>   -11.3577     0.0000     0.0000     0.0000     0.0000     0.0000     0.0000     0.0000     0.0000     0.0000 </r>
        <r>   -11.2728     0.0000     0.0000     0.0000     0.0000     0.0000     0.0000     0.0000     0.0000     0.0000 </r>
        <r>   -11.1880     0.0000     0.0000     0.0000     0.0000     0.0000     0.0000     0.0000     0.0000     0.0000 </r>
        <r>   -11.1031     0.0000     0.0000     0.0000     0.0000     0.0000     0.0000     0.0000     0.0000     0.0000 </r>
        <r>   -11.0183     0.0000     0.0000     0.0000     0.0000     0.0000     0.0000     0.0000     0.0000     0.0000 </r>
        <r>   -10.9334     0.0000     0.0000     0.0000     0.0000     0.0000     0.0000     0.0000     0.0000     0.0000 </r>
        <r>   -10.8486     0.0000     0.0000     0.0000     0.0000     0.0000     0.0000     0.0000     0.0000     0.0000 </r>
        <r>   -10.7638     0.0000     0.0000     0.0000     0.0000     0.0000     0.0000     0.0000     0.0000     0.0000 </r>
        <r>   -10.6789     0.0000     0.0000     0.0000     0.0000     0.0000     0.0000     0.0000     0.0000     0.0000 </r>
        <r>   -10.5941     0.0000     0.0000     0.0000     0.0000     0.0000     0.0000     0.0000     0.0000     0.0000 </r>
        <r>   -10.5092     0.0000     0.0000     0.0000     0.0000     0.0000     0.0000     0.0000     0.0000     0.0000 </r>
        <r>   -10.4244     0.0000     0.0000     0.0000     0.0000     0.0000     0.0000     0.0000     0.0000     0.0000 </r>
        <r>   -10.3395     0.0000     0.0000     0.0000     0.0000     0.0000     0.0000     0.0000     0.0000     0.0000 </r>
        <r>   -10.2547     0.0000     0.0000     0.0000     0.0000     0.0000     0.0000     0.0000     0.0000     0.0000 </r>
        <r>   -10.1698     0.0000     0.0000     0.0000     0.0000     0.0000     0.0000     0.0000     0.0000     0.0000 </r>
        <r>   -10.0850     0.0000     0.0000     0.0000     0.0000     0.0000     0.0000     0.0000     0.0000     0.0000 </r>
        <r>   -10.0001     0.0000     0.0000     0.0000     0.0000     0.0000     0.0000     0.0000     0.0000     0.0000 </r>
        <r>    -9.9153     0.0000     0.0000     0.0000     0.0000     0.0000     0.0000     0.0000     0.0000     0.0000 </r>
        <r>    -9.8304     0.0000     0.0000     0.0000     0.0000     0.0000     0.0000     0.0000     0.0000     0.0000 </r>
        <r>    -9.7456     0.0000     0.0000     0.0000     0.0000     0.0000     0.0000     0.0000     0.0000     0.0000 </r>
        <r>    -9.6608     0.0000     0.0000     0.0000     0.0000     0.0000     0.0000     0.0000     0.0000     0.0000 </r>
        <r>    -9.5759     0.0000     0.0000     0.0000     0.0000     0.0000     0.0000     0.0000     0.0000     0.0000 </r>
        <r>    -9.4911     0.0000     0.0000     0.0000     0.0000     0.0000     0.0000     0.0000     0.0000     0.0000 </r>
        <r>    -9.4062     0.0000     0.0000     0.0000     0.0000     0.0000     0.0000     0.0000     0.0000     0.0000 </r>
        <r>    -9.3214     0.0000     0.0000     0.0000     0.0000     0.0000     0.0000     0.0000     0.0000     0.0000 </r>
        <r>    -9.2365     0.0000     0.0000     0.0000     0.0000     0.0000     0.0000     0.0000     0.0000     0.0000 </r>
        <r>    -9.1517     0.0000     0.0000     0.0000     0.0000     0.0000     0.0000     0.0000     0.0000     0.0000 </r>
        <r>    -9.0668     0.0000     0.0000     0.0000     0.0000     0.0000     0.0000     0.0000     0.0000     0.0000 </r>
        <r>    -8.9820     0.0000     0.0000     0.0000     0.0000     0.0000     0.0000     0.0000     0.0000     0.0000 </r>
        <r>    -8.8971     0.0000     0.0000     0.0000     0.0000     0.0000     0.0000     0.0000     0.0000     0.0000 </r>
        <r>    -8.8123     0.0000     0.0000     0.0000     0.0000     0.0000     0.0000     0.0000     0.0000     0.0000 </r>
        <r>    -8.7274     0.0000     0.0000     0.0000     0.0000     0.0000     0.0000     0.0000     0.0000     0.0000 </r>
        <r>    -8.6426     0.1287     0.0057     0.0000     0.0209     0.0000     0.0000     0.0000     0.0000     0.0000 </r>
        <r>    -8.5578     0.1585     0.0068     0.0000     0.0274     0.0000     0.0000     0.0000     0.0000     0.0000 </r>
        <r>    -8.4729     0.1881     0.0079     0.0000     0.0340     0.0000     0.0000     0.0000     0.0000     0.0000 </r>
        <r>    -8.3881     0.2175     0.0090     0.0000     0.0408     0.0000     0.0000     0.0000     0.0000     0.0000 </r>
        <r>    -8.3032     0.2051     0.0085     0.0000     0.0423     0.0000     0.0000     0.0000     0.0000     0.0000 </r>
        <r>    -8.2184     0.2325     0.0105     0.0000     0.0485     0.0000     0.0000     0.0000     0.0000     0.0000 </r>
        <r>    -8.1335     0.2598     0.0126     0.0000     0.0546     0.0000     0.0000     0.0000     0.0000     0.0000 </r>
        <r>    -8.0487     0.3381     0.0189     0.0000     0.0698     0.0000     0.0000     0.0000     0.0000     0.0000 </r>
        <r>    -7.9638     0.1011     0.0029     0.0000     0.0261     0.0000     0.0000     0.0000     0.0000     0.0000 </r>
        <r>    -7.8790     0.0959     0.0031     0.0000     0.0253     0.0000     0.0000     0.0000     0.0000     0.0000 </r>
        <r>    -7.7941     0.0908     0.0034     0.0000     0.0243     0.0000     0.0000     0.0000     0.0000     0.0000 </r>
        <r>    -7.7093     0.0856     0.0037     0.0000     0.0234     0.0000     0.0000     0.0000     0.0000     0.0000 </r>
        <r>    -7.6244     0.0772     0.0038     0.0000     0.0215     0.0000     0.0000     0.0000     0.0000     0.0000 </r>
        <r>    -7.5396     0.0664     0.0036     0.0000     0.0190     0.0000     0.0000     0.0000     0.0000     0.0000 </r>
        <r>    -7.4548     0.0558     0.0034     0.0000     0.0166     0.0000     0.0000     0.0000     0.0000     0.0000 </r>
        <r>    -7.3699     0.0487     0.0032     0.0000     0.0151     0.0000     0.0000     0.0000     0.0000     0.0000 </r>
        <r>    -7.2851     0.0466     0.0032     0.0000     0.0149     0.0000     0.0000     0.0000     0.0000     0.0000 </r>
        <r>    -7.2002     0.0446     0.0032     0.0000     0.0146     0.0000     0.0000     0.0000     0.0000     0.0000 </r>
        <r>    -7.1154     0.0611     0.0200     0.0000     0.0271     0.0000     0.0000     0.0000     0.0000     0.0000 </r>
        <r>    -7.0305     0.0586     0.0208     0.0000     0.0266     0.0000     0.0000     0.0000     0.0000     0.0000 </r>
        <r>    -6.9457     0.0561     0.0217     0.0000     0.0261     0.0000     0.0000     0.0000     0.0000     0.0000 </r>
        <r>    -6.8608     0.0536     0.0227     0.0000     0.0255     0.0000     0.0000     0.0000     0.0000     0.0000 </r>
        <r>    -6.7760     0.0519     0.0244     0.0000     0.0255     0.0000     0.0000     0.0000     0.0000     0.0000 </r>
        <r>    -6.6911     0.0445     0.0265     0.0020     0.0241     0.0000     0.0000     0.0000     0.0000     0.0000 </r>
        <r>    -6.6063     0.0444     0.0292     0.0025     0.0248     0.0000     0.0000     0.0000     0.0000     0.0000 </r>
        <r>    -6.5214     0.0444     0.0320     0.0030     0.0254     0.0000     0.0000     0.0000     0.0000     0.0000 </r>
        <r>    -6.4366     0.0442     0.0349     0.0035     0.0260     0.0000     0.0000     0.0000     0.0000     0.0000 </r>
        <r>    -6.3518     0.0431     0.0406     0.0041     0.0268     0.0000     0.0000     0.0000     0.0000     0.0000 </r>
        <r>    -6.2669     0.0412     0.0437     0.0046     0.0266     0.0000     0.0000     0.0000     0.0000     0.0000 </r>
        <r>    -6.1821     0.0391     0.0468     0.0052     0.0265     0.0000     0.0000     0.0000     0.0000     0.0000 </r>
        <r>    -6.0972     0.0370     0.0500     0.0401     0.0263     0.0000     0.0000     0.0000     0.0000     0.0000 </r>
        <r>    -6.0124     0.0492     0.0606     0.0623     0.0369     0.0000     0.0000     0.0000     0.0000     0.0000 </r>
        <r>    -5.9275     0.0358     0.0616     0.0351     0.0312     0.0000     0.0000     0.0000     0.0000     0.0000 </r>
        <r>    -5.8427     0.0248     0.0630     0.0058     0.0267     0.0000     0.0000     0.0000     0.0000     0.0000 </r>
        <r>    -5.7578     0.0224     0.0660     0.0000     0.0267     0.0000     0.0000     0.0000     0.0000     0.0000 </r>
        <r>    -5.6730     0.0406     0.0817     0.0319     0.0385     0.0000     0.0000     0.0000     0.0000     0.0000 </r>
        <r>    -5.5881     0.0399     0.1296     0.0380     0.0557     0.0000     0.0000     0.0000     0.0000     0.0000 </r>
        <r>    -5.5033     0.0391     0.1602     0.0560     0.0693     0.0000     0.0000     0.0000     0.0000     0.0000 </r>
        <r>    -5.4184     0.0356     0.1867     0.0789     0.0775     0.0000     0.0000     0.0000     0.0000     0.0000 </r>
        <r>    -5.3336     0.0161     0.1247     0.0461     0.0434     0.0000     0.0000     0.0000     0.0000     0.0000 </r>
        <r>    -5.2488     0.0094     0.0602     0.0277     0.0236     0.0000     0.0000     0.0000     0.0000     0.0000 </r>
        <r>    -5.1639     0.0052     0.0029     0.0007     0.0056     0.0000     0.0000     0.0000     0.0000     0.0000 </r>
        <r>    -5.0791     0.0127     0.1415     0.0197     0.0708     0.0000     0.0000     0.0000     0.0000     0.0000 </r>
        <r>    -4.9942     0.0094     0.1137     0.0323     0.0592     0.0000     0.0000     0.0000     0.0000     0.0000 </r>
        <r>    -4.9094     0.0053     0.0699     0.0319     0.0414     0.0000     0.0000     0.0000     0.0000     0.0000 </r>
        <r>    -4.8245     0.0022     0.0611     0.0292     0.0393     0.0000     0.0000     0.0000     0.0000     0.0000 </r>
        <r>    -4.7397     0.0012     0.0407     0.0296     0.0250     0.0000     0.0000     0.0000     0.0000     0.0000 </r>
        <r>    -4.6548     0.0002     0.0279     0.0295     0.0096     0.0000     0.0000     0.0000     0.0000     0.0000 </r>
        <r>    -4.5700     0.0000     0.0000     0.0293     0.0000     0.0000     0.0000     0.0000     0.0000     0.0000 </r>
        <r>    -4.4851     0.0000     0.0000     0.0290     0.0000     0.0000     0.0000     0.0000     0.0000     0.0000 </r>
        <r>    -4.4003     0.0000     0.0000     0.0287     0.0000     0.0000     0.0000     0.0000     0.0000     0.0000 </r>
        <r>    -4.3154     0.0000     0.0000     0.0313     0.0000     0.0000     0.0000     0.0000     0.0000     0.0000 </r>
        <r>    -4.2306     0.0000     0.0000     0.0380     0.0000     0.0000     0.0000     0.0000     0.0000     0.0000 </r>
        <r>    -4.1458     0.0000     0.0000     0.0208     0.0000     0.0000     0.0000     0.0000     0.0000     0.0000 </r>
        <r>    -4.0609     0.0000     0.0000     0.0103     0.0000     0.0000     0.0000     0.0000     0.0000     0.0000 </r>
        <r>    -3.9761     0.0000     0.0000     0.0043     0.0000     0.0000     0.0000     0.0000     0.0000     0.0000 </r>
        <r>    -3.8912     0.0000     0.0000     0.0000     0.0000     0.0000     0.0000     0.0000     0.0000     0.0000 </r>
        <r>    -3.8064     0.0000     0.0000     0.0000     0.0000     0.0000     0.0000     0.0000     0.0000     0.0000 </r>
        <r>    -3.7215     0.0000     0.0000     0.0000     0.0000     0.0000     0.0000     0.0000     0.0000     0.0000 </r>
        <r>    -3.6367     0.0000     0.0000     0.0000     0.0000     0.0000     0.0000     0.0000     0.0000     0.0000 </r>
        <r>    -3.5518     0.0000     0.0000     0.0000     0.0000     0.0000     0.0000     0.0000     0.0000     0.0000 </r>
        <r>    -3.4670     0.0000     0.0000     0.0000     0.0000     0.0000     0.0000     0.0000     0.0000     0.0000 </r>
        <r>    -3.3821     0.0000     0.0000     0.0000     0.0000     0.0000     0.0000     0.0000     0.0000     0.0000 </r>
        <r>    -3.2973     0.0000     0.0000     0.0000     0.0000     0.0000     0.0000     0.0000     0.0000     0.0000 </r>
        <r>    -3.2124     0.0000     0.0000     0.0000     0.0000     0.0000     0.0000     0.0000     0.0000     0.0000 </r>
        <r>    -3.1276     0.0000     0.0000     0.0000     0.0000     0.0000     0.0000     0.0000     0.0000     0.0000 </r>
        <r>    -3.0428     0.0000     0.0000     0.0000     0.0000     0.0000     0.0000     0.0000     0.0000     0.0000 </r>
        <r>    -2.9579     0.0000     0.0000     0.0000     0.0000     0.0000     0.0000     0.0000     0.0000     0.0000 </r>
        <r>    -2.8731     0.0000     0.0000     0.0000     0.0000     0.0000     0.0000     0.0000     0.0000     0.0000 </r>
        <r>    -2.7882     0.0000     0.0000     0.0000     0.0000     0.0000     0.0000     0.0000     0.0000     0.0000 </r>
        <r>    -2.7034     0.0000     0.0000     0.0000     0.0000     0.0000     0.0000     0.0000     0.0000     0.0000 </r>
        <r>    -2.6185     0.0000     0.0000     0.0000     0.0000     0.0000     0.0000     0.0000     0.0000     0.0000 </r>
        <r>    -2.5337     0.0000     0.0000     0.0000     0.0000     0.0000     0.0000     0.0000     0.0000     0.0000 </r>
        <r>    -2.4488     0.0000     0.0000     0.0000     0.0000     0.0000     0.0000     0.0000     0.0000     0.0000 </r>
        <r>    -2.3640     0.0000     0.0000     0.0000     0.0000     0.0000     0.0000     0.0000     0.0000     0.0000 </r>
        <r>    -2.2791     0.0000     0.0000     0.0000     0.0000     0.0000     0.0000     0.0000     0.0000     0.0000 </r>
        <r>    -2.1943     0.0000     0.0000     0.0000     0.0000     0.0000     0.0000     0.0000     0.0000     0.0000 </r>
        <r>    -2.1094     0.0000     0.0000     0.0000     0.0000     0.0000     0.0000     0.0000     0.0000     0.0000 </r>
        <r>    -2.0246     0.0000     0.0000     0.0000     0.0000     0.0000     0.0000     0.0000     0.0000     0.0000 </r>
        <r>    -1.9398     0.0000     0.0000     0.0000     0.0000     0.0000     0.0000     0.0000     0.0000     0.0000 </r>
        <r>    -1.8549     0.0000     0.0000     0.0000     0.0000     0.0000     0.0000     0.0000     0.0000     0.0000 </r>
        <r>    -1.7701     0.0000     0.0000     0.0000     0.0000     0.0000     0.0000     0.0000     0.0000     0.0000 </r>
        <r>    -1.6852     0.0000     0.0000     0.0000     0.0000     0.0000     0.0000     0.0000     0.0000     0.0000 </r>
        <r>    -1.6004     0.0000     0.0000     0.0000     0.0000     0.0000     0.0000     0.0000     0.0000     0.0000 </r>
        <r>    -1.5155     0.0000     0.0000     0.0000     0.0000     0.0000     0.0000     0.0000     0.0000     0.0000 </r>
        <r>    -1.4307     0.0000     0.0000     0.0000     0.0000     0.0000     0.0000     0.0000     0.0000     0.0000 </r>
        <r>    -1.3458     0.0000     0.0000     0.0000     0.0000     0.0000     0.0000     0.0000     0.0000     0.0000 </r>
        <r>    -1.2610     0.0000     0.0000     0.0000     0.0000     0.0000     0.0000     0.0000     0.0000     0.0000 </r>
        <r>    -1.1761     0.0000     0.0000     0.0000     0.0000     0.0000     0.0000     0.0000     0.0000     0.0000 </r>
        <r>    -1.0913     0.0000     0.0000     0.0000     0.0000     0.0000     0.0000     0.0000     0.0000     0.0000 </r>
        <r>    -1.0064     0.0006     0.0000     0.0000     0.0000     0.0000     0.0000     0.0000     0.0000     0.0000 </r>
        <r>    -0.9216     0.0048     0.0001     0.0000     0.0002     0.0000     0.0000     0.0000     0.0000     0.0000 </r>
        <r>    -0.8368     0.0088     0.0001     0.0000     0.0003     0.0000     0.0000     0.0000     0.0000     0.0000 </r>
        <r>    -0.7519     0.0126     0.0002     0.0000     0.0005     0.0000     0.0000     0.0000     0.0000     0.0000 </r>
        <r>    -0.6671     0.0078     0.0004     0.0000     0.0006     0.0000     0.0000     0.0000     0.0000     0.0000 </r>
        <r>    -0.5822     0.0080     0.0004     0.0000     0.0007     0.0000     0.0000     0.0000     0.0000     0.0000 </r>
        <r>    -0.4974     0.0083     0.0005     0.0000     0.0007     0.0000     0.0000     0.0000     0.0000     0.0000 </r>
        <r>    -0.4125     0.0085     0.0005     0.0000     0.0008     0.0000     0.0000     0.0000     0.0000     0.0000 </r>
        <r>    -0.3277     0.0087     0.0006     0.0000     0.0009     0.0000     0.0000     0.0000     0.0000     0.0000 </r>
        <r>    -0.2428     0.0089     0.0007     0.0000     0.0010     0.0000     0.0000     0.0000     0.0000     0.0000 </r>
        <r>    -0.1580     0.0083     0.0007     0.0000     0.0012     0.0000     0.0000     0.0000     0.0000     0.0000 </r>
        <r>    -0.0731     0.0076     0.0008     0.0000     0.0013     0.0000     0.0000     0.0000     0.0000     0.0000 </r>
        <r>     0.0117     0.0074     0.0008     0.0000     0.0015     0.0000     0.0000     0.0000     0.0000     0.0000 </r>
        <r>     0.0966     0.0076     0.0008     0.0000     0.0016     0.0000     0.0000     0.0000     0.0000     0.0000 </r>
        <r>     0.1814     0.0078     0.0008     0.0000     0.0018     0.0000     0.0000     0.0000     0.0000     0.0000 </r>
        <r>     0.2662     0.0081     0.0009     0.0000     0.0019     0.0000     0.0000     0.0000     0.0000     0.0000 </r>
        <r>     0.3511     0.0083     0.0009     0.0000     0.0021     0.0000     0.0000     0.0000     0.0000     0.0000 </r>
        <r>     0.4359     0.0085     0.0009     0.0000     0.0022     0.0000     0.0000     0.0000     0.0000     0.0000 </r>
        <r>     0.5208     0.0087     0.0009     0.0000     0.0024     0.0000     0.0000     0.0000     0.0000     0.0000 </r>
        <r>     0.6056     0.0084     0.0009     0.0000     0.0025     0.0000     0.0000     0.0000     0.0000     0.0000 </r>
        <r>     0.6905     0.0087     0.0009     0.0000     0.0027     0.0000     0.0000     0.0000     0.0000     0.0000 </r>
        <r>     0.7753     0.0090     0.0010     0.0000     0.0028     0.0000     0.0000     0.0000     0.0000     0.0000 </r>
        <r>     0.8602     0.0095     0.0010     0.0000     0.0030     0.0000     0.0000     0.0000     0.0000     0.0000 </r>
        <r>     0.9450     0.0102     0.0011     0.0000     0.0032     0.0000     0.0000     0.0000     0.0000     0.0000 </r>
        <r>     1.0299     0.0110     0.0011     0.0001     0.0035     0.0000     0.0000     0.0000     0.0000     0.0000 </r>
[...]
       </set>
       <set comment="band 5">
        <r>  0.0000  0.0000  0.1548  0.0000  0.0000  0.0000  0.0000  0.0000  0.0000 </r>
        <r>  0.0000  0.0000  0.0237  0.0000  0.0000  0.0000  0.0000  0.0000  0.0000 </r>
       </set>
       <set comment="band 6">
        <r>  0.1300  0.0082  0.0000  0.0245  0.0000  0.0000  0.0000  0.0000  0.0000 </r>
        <r>  0.0668  0.0046  0.0000  0.0138  0.0000  0.0000  0.0000  0.0000  0.0000 </r>
       </set>
       <set comment="band 7">
        <r>  0.0203  0.0027  0.0000  0.0082  0.0000  0.0000  0.0000  0.0000  0.0000 </r>
        <r>  0.0068  0.0308  0.0000  0.0924  0.0000  0.0000  0.0000  0.0000  0.0000 </r>
       </set>
       <set comment="band 8">
        <r>  0.0000  0.0000  0.0149  0.0000  0.0000  0.0000  0.0000  0.0000  0.0000 </r>
        <r>  0.0000  0.0000  0.0378  0.0000  0.0000  0.0000  0.0000  0.0000  0.0000 </r>
       </set>
      </set>
      <set comment="kpoint 7">
       <set comment="band 1">
        <r>  0.0937  0.0065  0.0000  0.0023  0.0000  0.0000  0.0000  0.0000  0.0000 </r>
        <r>  0.5405  0.0008  0.0000  0.0003  0.0000  0.0000  0.0000  0.0000  0.0000 </r>
       </set>
       <set comment="band 2">
        <r>  0.0000  0.0000  0.0666  0.0000  0.0000  0.0000  0.0000  0.0000  0.0000 </r>
        <r>  0.0000  0.0000  0.3213  0.0000  0.0000  0.0000  0.0000  0.0000  0.0000 </r>
       </set>
       <set comment="band 3">
        <r>  0.0547  0.0300  0.0000  0.0215  0.0000  0.0000  0.0000  0.0000  0.0000 </r>
        <r>  0.0361  0.3505  0.0000  0.1169  0.0000  0.0000  0.0000  0.0000  0.0000 </r>
       </set>
       <set comment="band 4">
        <r>  0.0021  0.0312  0.0000  0.0493  0.0000  0.0000  0.0000  0.0000  0.0000 </r>
        <r>  0.0000  0.1424  0.0000  0.4269  0.0000  0.0000  0.0000  0.0000  0.0000 </r>
       </set>
       <set comment="band 5">
        <r>  0.0275  0.0037  0.0000  0.0026  0.0000  0.0000  0.0000  0.0000  0.0000 </r>
        <r>  0.0832  0.0449  0.0000  0.0151  0.0000  0.0000  0.0000  0.0000  0.0000 </r>
       </set>
       <set comment="band 6">
        <r>  0.0000  0.0000  0.0020  0.0000  0.0000  0.0000  0.0000  0.0000  0.0000 </r>
        <r>  0.0000  0.0000  0.1081  0.0000  0.0000  0.0000  0.0000  0.0000  0.0000 </r>
       </set>
       <set comment="band 7">
        <r>  0.0049  0.0004  0.0000  0.0003  0.0000  0.0000  0.0000  0.0000  0.0000 </r>
        <r>  0.0074  0.0031  0.0000  0.0010  0.0000  0.0000  0.0000  0.0000  0.0000 </r>
       </set>
       <set comment="band 8">
        <r>  0.0261  0.0021  0.0000  0.0013  0.0000  0.0000  0.0000  0.0000  0.0000 </r>
        <r>  0.0312  0.0126  0.0000  0.0042  0.0000  0.0000  0.0000  0.0000  0.0000 </r>
       </set>
      </set>
      <set comment="kpoint 8">
       <set comment="band 1">
        <r>  0.0748  0.0107  0.0000  0.0088  0.0000  0.0000  0.0000  0.0000  0.0000 </r>
        <r>  0.5582  0.0011  0.0000  0.0008  0.0000  0.0000  0.0000  0.0000  0.0000 </r>
       </set>
       <set comment="band 2">
        <r>  0.0929  0.0088  0.0000  0.0382  0.0000  0.0000  0.0000  0.0000  0.0000 </r>
        <r>  0.0426  0.2158  0.0000  0.1904  0.0000  0.0000  0.0000  0.0000  0.0000 </r>
       </set>
       <set comment="band 3">
        <r>  0.0000  0.0000  0.0568  0.0000  0.0000  0.0000  0.0000  0.0000  0.0000 </r>
        <r>  0.0000  0.0000  0.3490  0.0000  0.0000  0.0000  0.0000  0.0000  0.0000 </r>
       </set>
       <set comment="band 4">
        <r>  0.0072  0.0673  0.0000  0.0313  0.0000  0.0000  0.0000  0.0000  0.0000 </r>
        <r>  0.0002  0.2540  0.0000  0.2901  0.0000  0.0000  0.0000  0.0000  0.0000 </r>
       </set>
       <set comment="band 5">
        <r>  0.0210  0.0023  0.0000  0.0064  0.0000  0.0000  0.0000  0.0000  0.0000 </r>
        <r>  0.0622  0.0451  0.0000  0.0290  0.0000  0.0000  0.0000  0.0000  0.0000 </r>
       </set>
       <set comment="band 6">
        <r>  0.0000  0.0000  0.0145  0.0000  0.0000  0.0000  0.0000  0.0000  0.0000 </r>
        <r>  0.0000  0.0000  0.1472  0.0000  0.0000  0.0000  0.0000  0.0000  0.0000 </r>
       </set>
       <set comment="band 7">
        <r>  0.0036  0.0003  0.0000  0.0007  0.0000  0.0000  0.0000  0.0000  0.0000 </r>
        <r>  0.0052  0.0034  0.0000  0.0020  0.0000  0.0000  0.0000  0.0000  0.0000 </r>
       </set>
       <set comment="band 8">
        <r>  0.0000  0.0000  0.0199  0.0000  0.0000  0.0000  0.0000  0.0000  0.0000 </r>
        <r>  0.0000  0.0000  0.0590  0.0000  0.0000  0.0000  0.0000  0.0000  0.0000 </r>
       </set>
      </set>
      <set comment="kpoint 9">
       <set comment="band 1">
        <r>  0.0491  0.0145  0.0000  0.0188  0.0000  0.0000  0.0000  0.0000  0.0000 </r>
        <r>  0.5842  0.0010  0.0000  0.0010  0.0000  0.0000  0.0000  0.0000  0.0000 </r>
       </set>
       <set comment="band 2">
        <r>  0.1314  0.0015  0.0000  0.0413  0.0000  0.0000  0.0000  0.0000  0.0000 </r>
        <r>  0.0314  0.1455  0.0000  0.2183  0.0000  0.0000  0.0000  0.0000  0.0000 </r>
       </set>
       <set comment="band 3">
        <r>  0.0127  0.0885  0.0000  0.0253  0.0000  0.0000  0.0000  0.0000  0.0000 </r>
        <r>  0.0007  0.3108  0.0000  0.2098  0.0000  0.0000  0.0000  0.0000  0.0000 </r>
       </set>
       <set comment="band 4">
        <r>  0.0000  0.0000  0.0411  0.0000  0.0000  0.0000  0.0000  0.0000  0.0000 </r>
        <r>  0.0000  0.0000  0.3943  0.0000  0.0000  0.0000  0.0000  0.0000  0.0000 </r>
       </set>
       <set comment="band 5">
        <r>  0.0310  0.0024  0.0000  0.0108  0.0000  0.0000  0.0000  0.0000  0.0000 </r>
        <r>  0.0533  0.0485  0.0000  0.0297  0.0000  0.0000  0.0000  0.0000  0.0000 </r>
       </set>
       <set comment="band 6">
        <r>  0.0000  0.0000  0.0686  0.0000  0.0000  0.0000  0.0000  0.0000  0.0000 </r>
        <r>  0.0000  0.0000  0.1563  0.0000  0.0000  0.0000  0.0000  0.0000  0.0000 </r>
       </set>
       <set comment="band 7">
        <r>  0.0096  0.0008  0.0000  0.0027  0.0000  0.0000  0.0000  0.0000  0.0000 </r>
        <r>  0.0058  0.0047  0.0000  0.0008  0.0000  0.0000  0.0000  0.0000  0.0000 </r>
       </set>
       <set comment="band 8">
        <r>  0.0000  0.0000  0.0326  0.0000  0.0000  0.0000  0.0000  0.0000  0.0000 </r>
        <r>  0.0000  0.0000  0.0114  0.0000  0.0000  0.0000  0.0000  0.0000  0.0000 </r>
       </set>
      </set>
      <set comment="kpoint 10">
       <set comment="band 1">
        <r>  0.0238  0.0161  0.0000  0.0297  0.0000  0.0000  0.0000  0.0000  0.0000 </r>
        <r>  0.6121  0.0005  0.0000  0.0004  0.0000  0.0000  0.0000  0.0000  0.0000 </r>
       </set>
       <set comment="band 2">
        <r>  0.1639  0.0031  0.0000  0.0350  0.0000  0.0000  0.0000  0.0000  0.0000 </r>
        <r>  0.0110  0.1070  0.0000  0.2334  0.0000  0.0000  0.0000  0.0000  0.0000 </r>
       </set>
       <set comment="band 3">
        <r>  0.0168  0.0953  0.0000  0.0278  0.0000  0.0000  0.0000  0.0000  0.0000 </r>
        <r>  0.0014  0.3452  0.0000  0.1600  0.0000  0.0000  0.0000  0.0000  0.0000 </r>
       </set>
       <set comment="band 4">
        <r>  0.0000  0.0000  0.0217  0.0000  0.0000  0.0000  0.0000  0.0000  0.0000 </r>
        <r>  0.0000  0.0000  0.4513  0.0000  0.0000  0.0000  0.0000  0.0000  0.0000 </r>
       </set>
       <set comment="band 5">
        <r>  0.0000  0.0000  0.1388  0.0000  0.0000  0.0000  0.0000  0.0000  0.0000 </r>
        <r>  0.0000  0.0000  0.0646  0.0000  0.0000  0.0000  0.0000  0.0000  0.0000 </r>
       </set>
       <set comment="band 6">
        <r>  0.0787  0.0051  0.0000  0.0184  0.0000  0.0000  0.0000  0.0000  0.0000 </r>
        <r>  0.0553  0.0522  0.0000  0.0156  0.0000  0.0000  0.0000  0.0000  0.0000 </r>
       </set>
       <set comment="band 7">
        <r>  0.0591  0.0076  0.0000  0.0160  0.0000  0.0000  0.0000  0.0000  0.0000 </r>
        <r>  0.0111  0.0020  0.0000  0.0689  0.0000  0.0000  0.0000  0.0000  0.0000 </r>
       </set>
       <set comment="band 8">
        <r>  0.0000  0.0000  0.0257  0.0000  0.0000  0.0000  0.0000  0.0000  0.0000 </r>
        <r>  0.0000  0.0000  0.0082  0.0000  0.0000  0.0000  0.0000  0.0000  0.0000 </r>
       </set>
      </set>
      <set comment="kpoint 11">
       <set comment="band 1">
        <r>  0.0125  0.0141  0.0000  0.0371  0.0000  0.0000  0.0000  0.0000  0.0000 </r>
        <r>  0.6253  0.0000  0.0000  0.0000  0.0000  0.0000  0.0000  0.0000  0.0000 </r>
       </set>
       <set comment="band 2">
        <r>  0.1776  0.0102  0.0000  0.0255  0.0000  0.0000  0.0000  0.0000  0.0000 </r>
        <r>  0.0001  0.0834  0.0000  0.2499  0.0000  0.0000  0.0000  0.0000  0.0000 </r>
       </set>
       <set comment="band 3">
        <r>  0.0184  0.0915  0.0000  0.0346  0.0000  0.0000  0.0000  0.0000  0.0000 </r>
        <r>  0.0018  0.3748  0.0000  0.1250  0.0000  0.0000  0.0000  0.0000  0.0000 </r>
       </set>
       <set comment="band 4">
        <r>  0.0000  0.0000  0.0111  0.0000  0.0000  0.0000  0.0000  0.0000  0.0000 </r>
        <r>  0.0000  0.0000  0.4826  0.0000  0.0000  0.0000  0.0000  0.0000  0.0000 </r>
       </set>
       <set comment="band 5">
        <r>  0.0000  0.0000  0.1667  0.0000  0.0000  0.0000  0.0000  0.0000  0.0000 </r>
        <r>  0.0000  0.0000  0.0077  0.0000  0.0000  0.0000  0.0000  0.0000  0.0000 </r>
       </set>
       <set comment="band 6">
        <r>  0.1255  0.0091  0.0000  0.0209  0.0000  0.0000  0.0000  0.0000  0.0000 </r>
        <r>  0.0574  0.0302  0.0000  0.0196  0.0000  0.0000  0.0000  0.0000  0.0000 </r>
       </set>
       <set comment="band 7">
        <r>  0.0001  0.0022  0.0000  0.0047  0.0000  0.0000  0.0000  0.0000  0.0000 </r>
        <r>  0.0069  0.0438  0.0000  0.1269  0.0000  0.0000  0.0000  0.0000  0.0000 </r>
       </set>
       <set comment="band 8">
        <r>  0.0000  0.0000  0.0103  0.0000  0.0000  0.0000  0.0000  0.0000  0.0000 </r>
        <r>  0.0000  0.0000  0.0805  0.0000  0.0000  0.0000  0.0000  0.0000  0.0000 </r>
       </set>
      </set>
      <set comment="kpoint 12">
       <set comment="band 1">
        <r>  0.0530  0.0221  0.0000  0.0091  0.0000  0.0000  0.0000  0.0000  0.0000 </r>
        <r>  0.5801  0.0016  0.0000  0.0005  0.0000  0.0000  0.0000  0.0000  0.0000 </r>
       </set>
       <set comment="band 2">
        <r>  0.1212  0.0136  0.0000  0.0303  0.0000  0.0000  0.0000  0.0000  0.0000 </r>
        <r>  0.0371  0.2806  0.0000  0.0938  0.0000  0.0000  0.0000  0.0000  0.0000 </r>
       </set>
       <set comment="band 3">
        <r>  0.0250  0.0564  0.0000  0.0536  0.0000  0.0000  0.0000  0.0000  0.0000 </r>
        <r>  0.0000  0.1254  0.0000  0.3751  0.0000  0.0000  0.0000  0.0000  0.0000 </r>
       </set>
       <set comment="band 4">
        <r>  0.0000  0.0000  0.0437  0.0000  0.0000  0.0000  0.0000  0.0000  0.0000 </r>
        <r>  0.0000  0.0000  0.3866  0.0000  0.0000  0.0000  0.0000  0.0000  0.0000 </r>
       </set>
       <set comment="band 5">
        <r>  0.0188  0.0036  0.0000  0.0050  0.0000  0.0000  0.0000  0.0000  0.0000 </r>
        <r>  0.0477  0.0652  0.0000  0.0231  0.0000  0.0000  0.0000  0.0000  0.0000 </r>
       </set>
       <set comment="band 6">
        <r>  0.0000  0.0000  0.0549  0.0000  0.0000  0.0000  0.0000  0.0000  0.0000 </r>
        <r>  0.0000  0.0000  0.1659  0.0000  0.0000  0.0000  0.0000  0.0000  0.0000 </r>
       </set>
       <set comment="band 7">
        <r>  0.0038  0.0004  0.0000  0.0006  0.0000  0.0000  0.0000  0.0000  0.0000 </r>
        <r>  0.0040  0.0054  0.0000  0.0020  0.0000  0.0000  0.0000  0.0000  0.0000 </r>
       </set>
       <set comment="band 8">
        <r>  0.0000  0.0000  0.0322  0.0000  0.0000  0.0000  0.0000  0.0000  0.0000 </r>
        <r>  0.0000  0.0000  0.0211  0.0000  0.0000  0.0000  0.0000  0.0000  0.0000 </r>
       </set>
      </set>
      <set comment="kpoint 13">
       <set comment="band 1">
        <r>  0.0280  0.0242  0.0000  0.0195  0.0000  0.0000  0.0000  0.0000  0.0000 </r>
        <r>  0.6070  0.0010  0.0000  0.0004  0.0000  0.0000  0.0000  0.0000  0.0000 </r>
       </set>
       <set comment="band 2">
        <r>  0.1495  0.0017  0.0000  0.0407  0.0000  0.0000  0.0000  0.0000  0.0000 </r>
        <r>  0.0202  0.1917  0.0000  0.1617  0.0000  0.0000  0.0000  0.0000  0.0000 </r>
       </set>
       <set comment="band 3">
        <r>  0.0425  0.0789  0.0000  0.0348  0.0000  0.0000  0.0000  0.0000  0.0000 </r>
        <r>  0.0008  0.2110  0.0000  0.2528  0.0000  0.0000  0.0000  0.0000  0.0000 </r>
       </set>
       <set comment="band 4">
        <r>  0.0000  0.0000  0.0256  0.0000  0.0000  0.0000  0.0000  0.0000  0.0000 </r>
        <r>  0.0000  0.0000  0.4393  0.0000  0.0000  0.0000  0.0000  0.0000  0.0000 </r>
       </set>
       <set comment="band 5">
        <r>  0.0000  0.0000  0.1235  0.0000  0.0000  0.0000  0.0000  0.0000  0.0000 </r>
        <r>  0.0000  0.0000  0.1054  0.0000  0.0000  0.0000  0.0000  0.0000  0.0000 </r>
       </set>
       <set comment="band 6">
        <r>  0.0304  0.0023  0.0000  0.0076  0.0000  0.0000  0.0000  0.0000  0.0000 </r>
        <r>  0.0383  0.0810  0.0000  0.0254  0.0000  0.0000  0.0000  0.0000  0.0000 </r>
       </set>
       <set comment="band 7">
        <r>  0.0243  0.0017  0.0000  0.0040  0.0000  0.0000  0.0000  0.0000  0.0000 </r>
        <r>  0.0043  0.0157  0.0000  0.0086  0.0000  0.0000  0.0000  0.0000  0.0000 </r>
       </set>
       <set comment="band 8">
        <r>  0.0000  0.0000  0.0350  0.0000  0.0000  0.0000  0.0000  0.0000  0.0000 </r>
        <r>  0.0000  0.0000  0.0002  0.0000  0.0000  0.0000  0.0000  0.0000  0.0000 </r>
       </set>
      </set>
      <set comment="kpoint 14">
       <set comment="band 1">
        <r>  0.0099  0.0215  0.0000  0.0307  0.0000  0.0000  0.0000  0.0000  0.0000 </r>
        <r>  0.6277  0.0003  0.0000  0.0000  0.0000  0.0000  0.0000  0.0000  0.0000 </r>
       </set>
       <set comment="band 2">
        <r>  0.1693  0.0074  0.0000  0.0343  0.0000  0.0000  0.0000  0.0000  0.0000 </r>
        <r>  0.0029  0.1169  0.0000  0.2265  0.0000  0.0000  0.0000  0.0000  0.0000 </r>
       </set>
       <set comment="band 3">
        <r>  0.0523  0.0799  0.0000  0.0331  0.0000  0.0000  0.0000  0.0000  0.0000 </r>
        <r>  0.0026  0.2925  0.0000  0.1520  0.0000  0.0000  0.0000  0.0000  0.0000 </r>
       </set>
       <set comment="band 4">
        <r>  0.0000  0.0000  0.0094  0.0000  0.0000  0.0000  0.0000  0.0000  0.0000 </r>
        <r>  0.0000  0.0000  0.4871  0.0000  0.0000  0.0000  0.0000  0.0000  0.0000 </r>
       </set>
       <set comment="band 5">
        <r>  0.0000  0.0000  0.1759  0.0000  0.0000  0.0000  0.0000  0.0000  0.0000 </r>
        <r>  0.0000  0.0000  0.0211  0.0000  0.0000  0.0000  0.0000  0.0000  0.0000 </r>
       </set>
       <set comment="band 6">
        <r>  0.0784  0.0043  0.0000  0.0107  0.0000  0.0000  0.0000  0.0000  0.0000 </r>
        <r>  0.0336  0.1021  0.0000  0.0247  0.0000  0.0000  0.0000  0.0000  0.0000 </r>
       </set>
       <set comment="band 7">
        <r>  0.0228  0.0058  0.0000  0.0066  0.0000  0.0000  0.0000  0.0000  0.0000 </r>
        <r>  0.0093  0.0142  0.0000  0.1523  0.0000  0.0000  0.0000  0.0000  0.0000 </r>
       </set>
       <set comment="band 8">
        <r>  0.0000  0.0000  0.0301  0.0000  0.0000  0.0000  0.0000  0.0000  0.0000 </r>
        <r>  0.0000  0.0000  0.0430  0.0000  0.0000  0.0000  0.0000  0.0000  0.0000 </r>
       </set>
      </set>
      <set comment="kpoint 15">
       <set comment="band 1">
        <r>  0.0093  0.0321  0.0000  0.0203  0.0000  0.0000  0.0000  0.0000  0.0000 </r>
        <r>  0.6281  0.0004  0.0000  0.0001  0.0000  0.0000  0.0000  0.0000  0.0000 </r>
       </set>
       <set comment="band 2">
        <r>  0.1645  0.0132  0.0000  0.0305  0.0000  0.0000  0.0000  0.0000  0.0000 </r>
        <r>  0.0074  0.2638  0.0000  0.0897  0.0000  0.0000  0.0000  0.0000  0.0000 </r>
       </set>
       <set comment="band 3">
        <r>  0.0674  0.0568  0.0000  0.0512  0.0000  0.0000  0.0000  0.0000  0.0000 </r>
        <r>  0.0000  0.1057  0.0000  0.3106  0.0000  0.0000  0.0000  0.0000  0.0000 </r>
       </set>
       <set comment="band 4">
        <r>  0.0000  0.0000  0.0092  0.0000  0.0000  0.0000  0.0000  0.0000  0.0000 </r>
        <r>  0.0000  0.0000  0.4872  0.0000  0.0000  0.0000  0.0000  0.0000  0.0000 </r>
       </set>
       <set comment="band 5">
        <r>  0.0000  0.0000  0.1818  0.0000  0.0000  0.0000  0.0000  0.0000  0.0000 </r>
        <r>  0.0000  0.0000  0.0382  0.0000  0.0000  0.0000  0.0000  0.0000  0.0000 </r>
       </set>
       <set comment="band 6">
        <r>  0.0452  0.0018  0.0000  0.0032  0.0000  0.0000  0.0000  0.0000  0.0000 </r>
        <r>  0.0203  0.1023  0.0000  0.0519  0.0000  0.0000  0.0000  0.0000  0.0000 </r>
       </set>
       <set comment="band 7">
        <r>  0.0472  0.0071  0.0000  0.0039  0.0000  0.0000  0.0000  0.0000  0.0000 </r>
        <r>  0.0053  0.0557  0.0000  0.1378  0.0000  0.0000  0.0000  0.0000  0.0000 </r>
       </set>
       <set comment="band 8">
        <r>  0.0000  0.0000  0.0414  0.0000  0.0000  0.0000  0.0000  0.0000  0.0000 </r>
        <r>  0.0000  0.0000  0.0069  0.0000  0.0000  0.0000  0.0000  0.0000  0.0000 </r>
       </set>
      </set>
      <set comment="kpoint 16">
       <set comment="band 1">
        <r>  0.0016  0.0243  0.0000  0.0315  0.0000  0.0000  0.0000  0.0000  0.0000 </r>
        <r>  0.6371  0.0000  0.0000  0.0000  0.0000  0.0000  0.0000  0.0000  0.0000 </r>
       </set>
       <set comment="band 2">
        <r>  0.1771  0.0185  0.0000  0.0237  0.0000  0.0000  0.0000  0.0000  0.0000 </r>
        <r>  0.0001  0.0932  0.0000  0.2646  0.0000  0.0000  0.0000  0.0000  0.0000 </r>
       </set>
       <set comment="band 3">
        <r>  0.0702  0.0607  0.0000  0.0464  0.0000  0.0000  0.0000  0.0000  0.0000 </r>
        <r>  0.0009  0.2927  0.0000  0.1032  0.0000  0.0000  0.0000  0.0000  0.0000 </r>
       </set>
       <set comment="band 4">
        <r>  0.0000  0.0000  0.0016  0.0000  0.0000  0.0000  0.0000  0.0000  0.0000 </r>
        <r>  0.0000  0.0000  0.5096  0.0000  0.0000  0.0000  0.0000  0.0000  0.0000 </r>
       </set>
       <set comment="band 5">
        <r>  0.0000  0.0000  0.2161  0.0000  0.0000  0.0000  0.0000  0.0000  0.0000 </r>
        <r>  0.0000  0.0000  0.0030  0.0000  0.0000  0.0000  0.0000  0.0000  0.0000 </r>
       </set>
       <set comment="band 6">
        <r>  0.0794  0.0009  0.0000  0.0013  0.0000  0.0000  0.0000  0.0000  0.0000 </r>
        <r>  0.0059  0.1073  0.0000  0.0961  0.0000  0.0000  0.0000  0.0000  0.0000 </r>
       </set>
       <set comment="band 7">
        <r>  0.0000  0.0000  0.0107  0.0000  0.0000  0.0000  0.0000  0.0000  0.0000 </r>
        <r>  0.0000  0.0000  0.0075  0.0000  0.0000  0.0000  0.0000  0.0000  0.0000 </r>
       </set>
       <set comment="band 8">
        <r>  0.0006  0.0023  0.0000  0.0031  0.0000  0.0000  0.0000  0.0000  0.0000 </r>
        <r>  0.0073  0.0940  0.0000  0.1195  0.0000  0.0000  0.0000  0.0000  0.0000 </r>
       </set>
      </set>
     </set>
    </set>
   </array>
  </projected>
 </calculation>
 <structure name="finalpos" >
  <crystal>
   <varray name="basis" >
    <v>       3.13127000       0.00000000       0.00000000 </v>
    <v>      -1.56563500       2.71176000       0.00000000 </v>
    <v>       0.00000000       0.00000000      20.00000000 </v>
   </varray>
   <i name="volume">    169.82505470 </i>
   <varray name="rec_basis" >
    <v>       0.31935924       0.18438210       0.00000000 </v>
    <v>       0.00000000       0.36876420       0.00000000 </v>
    <v>       0.00000000       0.00000000       0.05000000 </v>
   </varray>
  </crystal>
  <varray name="positions" >
   <v>       0.33333300       0.66666700       0.50000000 </v>
   <v>       0.00000000       0.00000000       0.50000000 </v>
  </varray>
 </structure>
</modeling>
