    2    2    1    1
  0.5643294E+01  0.2517827E-09  0.2517827E-09  0.2517827E-09  0.5000000E-15
  1.000000000000000E-004
  CAR 
 Diamont Test Results                    
      8      3      8
 
  0.0000000E+00  0.0000000E+00  0.0000000E+00  0.1250000E+00
    1      -11.962475   1.000000
    2        9.291397   1.000000
    3        9.291425   1.000000
    4        9.291427   1.000000
    5       15.347870   0.000000
    6       15.347889   0.000000
    7       15.347892   0.000000
    8       23.101856   0.000000
 
  0.5000000E+00  0.2114441E-16  0.0000000E+00  0.5000000E+00
    1       -6.383147   1.000000
    2       -3.725624   1.000000
    3        6.497194   1.000000
    4        6.497216   1.000000
    5       18.309397   0.000000
    6       18.309421   0.000000
    7       18.613126   0.000000
    8       26.470044   0.000000
 
  0.5000000E+00  0.5000000E+00  0.0000000E+00  0.3750000E+00
    1       -3.376358   1.000000
    2       -3.376357   1.000000
    3        3.138633   1.000000
    4        3.138647   1.000000
    5       14.945163   0.000000
    6       14.945175   0.000000
    7       27.022074   0.000000
    8       27.022101   0.000000
