    2    2    1    1
  0.5643294E+01  0.2517827E-09  0.2517827E-09  0.2517827E-09  0.5000000E-15
  1.000000000000000E-004
  CAR 
 r-GeO2 ENCUT convergence test           
      8    120      8
 
  0.0000000E+00  0.0000000E+00  0.0000000E+00  0.2962963E-03
    1      -12.150469   1.000000
    2        8.952816   1.000000
    3        8.952817   1.000000
    4        8.952818   1.000000
    5       15.038130   0.000000
    6       15.038133   0.000000
    7       15.038134   0.000000
    8       22.984908   0.000000
 
  0.6666667E-01 -0.3295382E-17  0.0000000E+00  0.2370370E-02
    1      -12.029117   1.000000
    2        8.179352   1.000000
    3        8.752807   1.000000
    4        8.752808   1.000000
    5       15.306539   0.000000
    6       15.306541   0.000000
    7       15.514412   0.000000
    8       23.095541   0.000000
 
  0.1333333E+00 -0.6590764E-17  0.0000000E+00  0.2370370E-02
    1      -11.666075   1.000000
    2        6.405846   1.000000
    3        8.265741   1.000000
    4        8.265742   1.000000
    5       15.965924   0.000000
    6       15.965926   0.000000
    7       16.423107   0.000000
    8       23.425546   0.000000
 
  0.2000000E+00 -0.2235735E-16  0.0000000E+00  0.2370370E-02
    1      -11.064924   1.000000
    2        4.264090   1.000000
    3        7.685133   1.000000
    4        7.685134   1.000000
    5       16.733988   0.000000
    6       16.733990   0.000000
    7       17.221180   0.000000
    8       23.947954   0.000000
 
  0.2666667E+00  0.1781357E-17  0.0000000E+00  0.2370370E-02
    1      -10.233591   1.000000
    2        2.041511   1.000000
    3        7.141128   1.000000
    4        7.141129   1.000000
    5       17.375878   0.000000
    6       17.375879   0.000000
    7       17.778295   0.000000
    8       24.580321   0.000000
 
  0.3333333E+00 -0.8131428E-17  0.0000000E+00  0.2370370E-02
    1       -9.189066   1.000000
    2       -0.117358   1.000000
    3        6.700375   1.000000
    4        6.700377   1.000000
    5       17.777001   0.000000
    6       17.777002   0.000000
    7       18.128567   0.000000
    8       25.190343   0.000000
 
  0.4000000E+00 -0.4471469E-16  0.0000000E+00  0.2370370E-02
    1       -7.979308   1.000000
    2       -2.098313   1.000000
    3        6.394919   1.000000
    4        6.394921   1.000000
    5       17.961990   0.000000
    6       17.961991   0.000000
    7       18.330213   0.000000
    8       25.638881   0.000000
 
  0.4666667E+00 -0.4454063E-16  0.0000000E+00  0.2370370E-02
    1       -6.828254   1.000000
    2       -3.642706   1.000000
    3        6.239389   1.000000
    4        6.239390   1.000000
    5       18.020750   0.000000
    6       18.020751   0.000000
    7       18.422372   0.000000
    8       25.865241   0.000000
 
  0.6666667E-01  0.6666667E-01  0.0000000E+00  0.1777778E-02
    1      -11.988671   1.000000
    2        8.378029   1.000000
    3        8.378030   1.000000
    4        8.559358   1.000000
    5       14.936493   0.000000
    6       15.762150   0.000000
    7       15.762151   0.000000
    8       23.096203   0.000000
 
  0.1333333E+00  0.6666667E-01  0.0000000E+00  0.7111111E-02
    1      -11.706248   1.000000
    2        6.997010   1.000000
    3        7.797188   1.000000
    4        8.356676   1.000000
    5       15.133441   0.000000
    6       16.540123   0.000000
    7       16.599191   0.000000
    8       23.242853   0.000000
 
  0.2000000E+00  0.6666667E-01  0.0000000E+00  0.7111111E-02
    1      -11.184406   1.000000
    2        4.998454   1.000000
    3        7.189601   1.000000
    4        7.907797   1.000000
    5       15.756040   0.000000
    6       17.377764   0.000000
    7       17.442384   0.000000
    8       23.523900   0.000000
 
  0.2666667E+00  0.6666667E-01  0.0000000E+00  0.7111111E-02
    1      -10.429503   1.000000
    2        2.821893   1.000000
    3        6.662727   1.000000
    4        7.335292   1.000000
    5       16.489801   0.000000
    6       18.054939   0.000000
    7       18.064851   0.000000
    8       23.935233   0.000000
 
  0.3333333E+00  0.6666667E-01  0.0000000E+00  0.7111111E-02
    1       -9.454642   1.000000
    2        0.653382   1.000000
    3        6.270757   1.000000
    4        6.773263   1.000000
    5       17.090843   0.000000
    6       18.447858   0.000000
    7       18.465315   0.000000
    8       24.488992   0.000000
 
  0.4000000E+00  0.6666667E-01  0.0000000E+00  0.7111111E-02
    1       -8.292488   1.000000
    2       -1.386459   1.000000
    3        6.038497   1.000000
    4        6.295088   1.000000
    5       17.484100   0.000000
    6       18.563821   0.000000
    7       18.699938   0.000000
    8       25.114264   0.000000
 
  0.4666667E+00  0.6666667E-01  0.0000000E+00  0.7111111E-02
    1       -7.068370   1.000000
    2       -3.125654   1.000000
    3        5.940246   1.000000
    4        5.974317   1.000000
    5       17.732894   0.000000
    6       18.496688   0.000000
    7       18.815977   0.000000
    8       25.614431   0.000000
 
 -0.4666667E+00  0.6666667E-01  0.0000000E+00  0.7111111E-02
    1       -6.522572   1.000000
    2       -3.801350   1.000000
    3        5.731610   1.000000
    4        6.076680   1.000000
    5       17.922699   0.000000
    6       18.337208   0.000000
    7       18.838360   0.000000
    8       25.793639   0.000000
 
 -0.4000000E+00  0.6666667E-01  0.0000000E+00  0.7111111E-02
    1       -7.464225   1.000000
    2       -2.598845   1.000000
    3        5.683027   1.000000
    4        6.336607   1.000000
    5       18.079005   0.000000
    6       18.115692   0.000000
    7       18.771097   0.000000
    8       25.593581   0.000000
 
 -0.3333333E+00  0.6666667E-01  0.0000000E+00  0.7111111E-02
    1       -8.697172   1.000000
    2       -0.725265   1.000000
    3        5.801617   1.000000
    4        6.737693   1.000000
    5       17.794016   0.000000
    6       18.149390   0.000000
    7       18.592602   0.000000
    8       25.092085   0.000000
 
 -0.2666667E+00  0.6666667E-01  0.0000000E+00  0.7111111E-02
    1       -9.803005   1.000000
    2        1.371425   1.000000
    3        6.087171   1.000000
    4        7.252141   1.000000
    5       17.303678   0.000000
    6       18.036570   0.000000
    7       18.243652   0.000000
    8       24.482463   0.000000
 
 -0.2000000E+00  0.6666667E-01  0.0000000E+00  0.7111111E-02
    1      -10.706596   1.000000
    2        3.557040   1.000000
    3        6.529304   1.000000
    4        7.830828   1.000000
    5       16.631507   0.000000
    6       17.599865   0.000000
    7       17.716243   0.000000
    8       23.941703   0.000000
 
 -0.1333333E+00  0.6666667E-01  0.0000000E+00  0.7111111E-02
    1      -11.384713   1.000000
    2        5.691423   1.000000
    3        7.104087   1.000000
    4        8.382290   1.000000
    5       15.901808   0.000000
    6       16.787003   0.000000
    7       17.066118   0.000000
    8       23.528067   0.000000
 
 -0.6666667E-01  0.6666667E-01  0.0000000E+00  0.3555556E-02
    1      -11.827194   1.000000
    2        7.443195   1.000000
    3        7.840439   1.000000
    4        8.748544   1.000000
    5       15.371325   0.000000
    6       15.930343   0.000000
    7       16.216153   0.000000
    8       23.242415   0.000000
 
  0.1333333E+00  0.1333333E+00  0.0000000E+00  0.1777778E-02
    1      -11.504807   1.000000
    2        7.163224   1.000000
    3        7.163225   1.000000
    4        7.475249   1.000000
    5       14.674991   0.000000
    6       17.416965   0.000000
    7       17.416965   0.000000
    8       22.993704   0.000000
 
  0.2000000E+00  0.1333333E+00  0.0000000E+00  0.7111111E-02
    1      -11.063626   1.000000
    2        5.611161   1.000000
    3        6.530103   1.000000
    4        7.205652   1.000000
    5       14.833815   0.000000
    6       18.337395   0.000000
    7       18.352433   0.000000
    8       22.721547   0.000000
 
  0.2666667E+00  0.1333333E+00  0.0000000E+00  0.7111111E-02
    1      -10.387837   1.000000
    2        3.610481   1.000000
    3        5.997319   1.000000
    4        6.733566   1.000000
    5       15.446703   0.000000
    6       19.062901   0.000000
    7       19.130546   0.000000
    8       22.576070   0.000000
 
  0.3333333E+00  0.1333333E+00  0.0000000E+00  0.7111111E-02
    1       -9.487941   1.000000
    2        1.517675   1.000000
    3        5.616989   1.000000
    4        6.123417   1.000000
    5       16.156834   0.000000
    6       19.541289   0.000000
    7       19.604081   0.000000
    8       22.791596   0.000000
 
  0.4000000E+00  0.1333333E+00  0.0000000E+00  0.7111111E-02
    1       -8.387722   1.000000
    2       -0.517588   1.000000
    3        5.413702   1.000000
    4        5.516308   1.000000
    5       16.707634   0.000000
    6       19.744429   0.000000
    7       19.824595   0.000000
    8       23.492192   0.000000
 
  0.4666667E+00  0.1333333E+00  0.0000000E+00  0.7111111E-02
    1       -7.163528   1.000000
    2       -2.350139   1.000000
    3        4.994431   1.000000
    4        5.395581   1.000000
    5       17.082152   0.000000
    6       19.628856   0.000000
    7       19.970168   0.000000
    8       24.497411   0.000000
 
 -0.4666667E+00  0.1333333E+00  0.0000000E+00  0.7111111E-02
    1       -6.234563   1.000000
    2       -3.524636   1.000000
    3        4.605290   1.000000
    4        5.559400   1.000000
    5       17.389531   0.000000
    6       19.358312   0.000000
    7       20.017302   0.000000
    8       25.330465   0.000000
 
 -0.4000000E+00  0.1333333E+00  0.0000000E+00  0.7111111E-02
    1       -6.777228   1.000000
    2       -2.851433   1.000000
    3        4.377971   1.000000
    4        5.892079   1.000000
    5       17.698316   0.000000
    6       18.986961   0.000000
    7       19.976850   0.000000
    8       25.436850   0.000000
 
 -0.3333333E+00  0.1333333E+00  0.0000000E+00  0.7111111E-02
    1       -7.990333   1.000000
    2       -1.138284   1.000000
    3        4.331052   1.000000
    4        6.369300   1.000000
    5       17.988143   0.000000
    6       18.503742   0.000000
    7       19.821134   0.000000
    8       24.836053   0.000000
 
 -0.2666667E+00  0.1333333E+00  0.0000000E+00  0.7111111E-02
    1       -9.144399   1.000000
    2        0.855365   1.000000
    3        4.477200   1.000000
    4        6.950507   1.000000
    5       17.868983   0.000000
    6       18.163370   0.000000
    7       19.452399   0.000000
    8       24.104960   0.000000
 
 -0.2000000E+00  0.1333333E+00  0.0000000E+00  0.7111111E-02
    1      -10.113776   1.000000
    2        2.928004   1.000000
    3        4.836608   1.000000
    4        7.567084   1.000000
    5       17.101632   0.000000
    6       18.104628   0.000000
    7       18.746654   0.000000
    8       23.676875   0.000000
 
 -0.1333333E+00  0.1333333E+00  0.0000000E+00  0.3555556E-02
    1      -10.865142   1.000000
    2        4.745593   1.000000
    3        5.591118   1.000000
    4        8.101910   1.000000
    5       16.355882   0.000000
    6       17.735283   0.000000
    7       17.768935   0.000000
    8       23.564254   0.000000
 
  0.2000000E+00  0.2000000E+00  0.0000000E+00  0.1777778E-02
    1      -10.703721   1.000000
    2        5.871625   1.000000
    3        5.871625   1.000000
    4        5.893723   1.000000
    5       14.354246   0.000000
    6       19.417418   0.000000
    7       19.417418   0.000000
    8       21.789414   0.000000
 
  0.2666667E+00  0.2000000E+00  0.0000000E+00  0.7111111E-02
    1      -10.108664   1.000000
    2        4.197167   1.000000
    3        5.316054   1.000000
    4        5.672967   1.000000
    5       14.527735   0.000000
    6       20.325192   0.000000
    7       20.353770   0.000000
    8       21.052774   0.000000
 
  0.3333333E+00  0.2000000E+00  0.0000000E+00  0.7111111E-02
    1       -9.287122   1.000000
    2        2.319319   1.000000
    3        4.918841   1.000000
    4        5.108024   1.000000
    5       15.158200   0.000000
    6       20.702975   0.000000
    7       20.987971   0.000000
    8       21.037367   0.000000
 
  0.4000000E+00  0.2000000E+00  0.0000000E+00  0.7111111E-02
    1       -8.257543   1.000000
    2        0.397221   1.000000
    3        4.411810   1.000000
    4        4.707564   1.000000
    5       15.825710   0.000000
    6       21.084660   0.000000
    7       21.243410   0.000000
    8       21.474362   0.000000
 
  0.4666667E+00  0.2000000E+00  0.0000000E+00  0.7111111E-02
    1       -7.070497   1.000000
    2       -1.426123   1.000000
    3        3.744561   1.000000
    4        4.692681   1.000000
    5       16.301656   0.000000
    6       21.163223   0.000000
    7       21.481413   0.000000
    8       22.434427   0.000000
 
 -0.4666667E+00  0.2000000E+00  0.0000000E+00  0.7111111E-02
    1       -5.954842   1.000000
    2       -2.864232   1.000000
    3        3.194382   1.000000
    4        4.872265   1.000000
    5       16.670382   0.000000
    6       20.842056   0.000000
    7       21.585607   0.000000
    8       23.917221   0.000000
 
 -0.4000000E+00  0.2000000E+00  0.0000000E+00  0.7111111E-02
    1       -5.971319   1.000000
    2       -2.828758   1.000000
    3        2.810404   1.000000
    4        5.233056   1.000000
    5       17.057223   0.000000
    6       20.349227   0.000000
    7       21.580874   0.000000
    8       24.988478   0.000000
 
 -0.3333333E+00  0.2000000E+00  0.0000000E+00  0.7111111E-02
    1       -7.089542   1.000000
    2       -1.352104   1.000000
    3        2.625567   1.000000
    4        5.748207   1.000000
    5       17.488496   0.000000
    6       19.695541   0.000000
    7       21.448607   0.000000
    8       24.657759   0.000000
 
 -0.2666667E+00  0.2000000E+00  0.0000000E+00  0.7111111E-02
    1       -8.270894   1.000000
    2        0.476161   1.000000
    3        2.684941   1.000000
    4        6.370784   1.000000
    5       17.898676   0.000000
    6       18.871057   0.000000
    7       21.001874   0.000000
    8       23.814310   0.000000
 
 -0.2000000E+00  0.2000000E+00  0.0000000E+00  0.3555556E-02
    1       -9.295686   1.000000
    2        2.130936   1.000000
    3        3.246724   1.000000
    4        7.020864   1.000000
    5       17.941017   0.000000
    6       18.152338   0.000000
    7       20.008524   0.000000
    8       23.499787   0.000000
 
  0.2666667E+00  0.2666667E+00  0.0000000E+00  0.1777778E-02
    1       -9.594910   1.000000
    2        3.980899   1.000000
    3        4.729208   1.000000
    4        4.729208   1.000000
    5       14.084889   0.000000
    6       19.792432   0.000000
    7       21.496007   0.000000
    8       21.496008   0.000000
 
  0.3333333E+00  0.2666667E+00  0.0000000E+00  0.7111111E-02
    1       -8.853796   1.000000
    2        2.620603   1.000000
    3        4.210081   1.000000
    4        4.298597   1.000000
    5       14.317993   0.000000
    6       19.042749   0.000000
    7       22.353820   0.000000
    8       22.358913   0.000000
 
  0.4000000E+00  0.2666667E+00  0.0000000E+00  0.7111111E-02
    1       -7.900316   1.000000
    2        1.034286   1.000000
    3        3.432319   1.000000
    4        4.056486   1.000000
    5       14.971664   0.000000
    6       19.009543   0.000000
    7       22.804241   0.000000
    8       22.899755   0.000000
 
  0.4666667E+00  0.2666667E+00  0.0000000E+00  0.7111111E-02
    1       -6.770264   1.000000
    2       -0.589198   1.000000
    3        2.580817   1.000000
    4        4.016658   1.000000
    5       15.555757   0.000000
    6       19.903345   0.000000
    7       22.834493   0.000000
    8       23.197824   0.000000
 
 -0.4666667E+00  0.2666667E+00  0.0000000E+00  0.7111111E-02
    1       -5.596562   1.000000
    2       -2.049882   1.000000
    3        1.834516   1.000000
    4        4.179752   1.000000
    5       15.963684   0.000000
    6       21.522255   0.000000
    7       22.515532   0.000000
    8       23.373896   0.000000
 
 -0.4000000E+00  0.2666667E+00  0.0000000E+00  0.7111111E-02
    1       -5.123986   1.000000
    2       -2.555569   1.000000
    3        1.282189   1.000000
    4        4.534444   1.000000
    5       16.370763   0.000000
    6       21.919924   0.000000
    7       22.973811   0.000000
    8       23.857471   0.000000
 
 -0.3333333E+00  0.2666667E+00  0.0000000E+00  0.7111111E-02
    1       -6.035838   1.000000
    2       -1.432554   1.000000
    3        0.994674   1.000000
    4        5.054971   1.000000
    5       16.860705   0.000000
    6       21.077691   0.000000
    7       23.138053   0.000000
    8       24.465096   0.000000
 
 -0.2666667E+00  0.2666667E+00  0.0000000E+00  0.3555556E-02
    1       -7.209425   1.000000
    2       -0.082503   1.000000
    3        1.260422   1.000000
    4        5.694267   1.000000
    5       17.406749   0.000000
    6       20.020427   0.000000
    7       22.533101   0.000000
    8       23.820342   0.000000
 
  0.3333333E+00  0.3333333E+00  0.0000000E+00  0.1777778E-02
    1       -8.193824   1.000000
    2        1.863679   1.000000
    3        3.826887   1.000000
    4        3.826887   1.000000
    5       13.960931   0.000000
    6       17.853817   0.000000
    7       23.475785   0.000000
    8       23.475786   0.000000
 
  0.4000000E+00  0.3333333E+00  0.0000000E+00  0.7111111E-02
    1       -7.319185   1.000000
    2        0.684722   1.000000
    3        3.212879   1.000000
    4        3.541674   1.000000
    5       14.286327   0.000000
    6       17.313832   0.000000
    7       24.178506   0.000000
    8       24.219072   0.000000
 
  0.4666667E+00  0.3333333E+00  0.0000000E+00  0.7111111E-02
    1       -6.257255   1.000000
    2       -0.533389   1.000000
    3        2.209120   1.000000
    4        3.460699   1.000000
    5       14.930842   0.000000
    6       17.667955   0.000000
    7       24.381641   0.000000
    8       24.623383   0.000000
 
 -0.4666667E+00  0.3333333E+00  0.0000000E+00  0.7111111E-02
    1       -5.091860   1.000000
    2       -1.694446   1.000000
    3        1.138160   1.000000
    4        3.587808   1.000000
    5       15.383627   0.000000
    6       19.096010   0.000000
    7       24.109323   0.000000
    8       24.795110   0.000000
 
 -0.4000000E+00  0.3333333E+00  0.0000000E+00  0.7111111E-02
    1       -4.302021   1.000000
    2       -2.386321   1.000000
    3        0.303834   1.000000
    4        3.914520   1.000000
    5       15.772914   0.000000
    6       21.142031   0.000000
    7       23.424847   0.000000
    8       24.821616   0.000000
 
 -0.3333333E+00  0.3333333E+00  0.0000000E+00  0.3555556E-02
    1       -4.934265   1.000000
    2       -1.788762   1.000000
    3        0.050947   1.000000
    4        4.418066   1.000000
    5       16.262381   0.000000
    6       22.382932   0.000000
    7       23.140225   0.000000
    8       24.623601   0.000000
 
  0.4000000E+00  0.4000000E+00  0.0000000E+00  0.1777778E-02
    1       -6.523812   1.000000
    2       -0.344402   1.000000
    3        3.207820   1.000000
    4        3.207820   1.000000
    5       14.058528   0.000000
    6       16.296114   0.000000
    7       25.144579   0.000000
    8       25.144580   0.000000
 
  0.4666667E+00  0.4000000E+00  0.0000000E+00  0.7111111E-02
    1       -5.535668   1.000000
    2       -1.438270   1.000000
    3        2.661798   1.000000
    4        3.077235   1.000000
    5       14.491428   0.000000
    6       16.015397   0.000000
    7       25.552767   0.000000
    8       25.638106   0.000000
 
 -0.4666667E+00  0.4000000E+00  0.0000000E+00  0.7111111E-02
    1       -4.411352   1.000000
    2       -2.429816   1.000000
    3        1.655935   1.000000
    4        3.157251   1.000000
    5       14.995482   0.000000
    6       16.898324   0.000000
    7       25.367608   0.000000
    8       25.764690   0.000000
 
 -0.4000000E+00  0.4000000E+00  0.0000000E+00  0.3555556E-02
    1       -3.631244   1.000000
    2       -2.943069   1.000000
    3        0.624792   1.000000
    4        3.442677   1.000000
    5       15.325279   0.000000
    6       18.823813   0.000000
    7       24.628272   0.000000
    8       25.544347   0.000000
 
  0.4666667E+00  0.4666667E+00  0.0000000E+00  0.1777778E-02
    1       -4.620912   1.000000
    2       -2.536989   1.000000
    3        2.893595   1.000000
    4        2.893595   1.000000
    5       14.441507   0.000000
    6       15.169233   0.000000
    7       26.152605   0.000000
    8       26.152607   0.000000
 
 -0.4666667E+00  0.4666667E+00  0.0000000E+00  0.3555556E-02
    1       -3.576960   1.000000
    2       -3.524670   1.000000
    3        2.483635   1.000000
    4        2.920844   1.000000
    5       14.822733   0.000000
    6       15.316242   0.000000
    7       26.085619   0.000000
    8       26.194675   0.000000
 
  0.2000000E+00  0.1333333E+00  0.6666667E-01  0.7111111E-02
    1      -11.344342   1.000000
    2        6.101093   1.000000
    3        6.677250   1.000000
    4        8.100289   1.000000
    5       15.282651   0.000000
    6       17.407122   0.000000
    7       17.442421   0.000000
    8       23.239484   0.000000
 
  0.2666667E+00  0.1333333E+00  0.6666667E-01  0.1422222E-01
    1      -10.745469   1.000000
    2        4.292855   1.000000
    3        5.925184   1.000000
    4        7.670995   1.000000
    5       15.881213   0.000000
    6       18.119167   0.000000
    7       18.331252   0.000000
    8       23.270679   0.000000
 
  0.3333333E+00  0.1333333E+00  0.6666667E-01  0.1422222E-01
    1       -9.917773   1.000000
    2        2.188080   1.000000
    3        5.446944   1.000000
    4        7.094887   1.000000
    5       16.627209   0.000000
    6       18.509921   0.000000
    7       19.075836   0.000000
    8       23.494247   0.000000
 
  0.4000000E+00  0.1333333E+00  0.6666667E-01  0.1422222E-01
    1       -8.878731   1.000000
    2        0.094254   1.000000
    3        5.141493   1.000000
    4        6.514958   1.000000
    5       17.255005   0.000000
    6       18.634353   0.000000
    7       19.536193   0.000000
    8       24.063870   0.000000
 
  0.4666667E+00  0.1333333E+00  0.6666667E-01  0.1422222E-01
    1       -7.677176   1.000000
    2       -1.846588   1.000000
    3        4.996182   1.000000
    4        6.031262   1.000000
    5       17.669263   0.000000
    6       18.574758   0.000000
    7       19.768745   0.000000
    8       24.858199   0.000000
 
 -0.4666667E+00  0.1333333E+00  0.6666667E-01  0.1422222E-01
    1       -6.537622   1.000000
    2       -3.365334   1.000000
    3        4.968125   1.000000
    4        5.734585   1.000000
    5       17.893481   0.000000
    6       18.461813   0.000000
    7       19.863886   0.000000
    8       25.471223   0.000000
 
  0.2666667E+00  0.2000000E+00  0.6666667E-01  0.7111111E-02
    1      -10.545504   1.000000
    2        4.687787   1.000000
    3        5.421717   1.000000
    4        6.808599   1.000000
    5       14.990275   0.000000
    6       19.117660   0.000000
    7       19.403688   0.000000
    8       22.158896   0.000000
 
  0.3333333E+00  0.2000000E+00  0.6666667E-01  0.1422222E-01
    1       -9.796613   1.000000
    2        2.958348   1.000000
    3        4.734030   1.000000
    4        6.325018   1.000000
    5       15.625517   0.000000
    6       19.592074   0.000000
    7       20.332682   0.000000
    8       21.854221   0.000000
 
  0.4000000E+00  0.2000000E+00  0.6666667E-01  0.1422222E-01
    1       -8.831042   1.000000
    2        0.981506   1.000000
    3        4.348326   1.000000
    4        5.740365   1.000000
    5       16.365420   0.000000
    6       19.759949   0.000000
    7       20.927189   0.000000
    8       22.153498   0.000000
 
  0.4666667E+00  0.2000000E+00  0.6666667E-01  0.1422222E-01
    1       -7.682877   1.000000
    2       -0.945053   1.000000
    3        4.093854   1.000000
    4        5.243453   1.000000
    5       16.926118   0.000000
    6       19.694369   0.000000
    7       21.242780   0.000000
    8       23.073780   0.000000
 
 -0.4666667E+00  0.2000000E+00  0.6666667E-01  0.1422222E-01
    1       -6.479552   1.000000
    2       -2.612062   1.000000
    3        3.864007   1.000000
    4        5.016351   1.000000
    5       17.306607   0.000000
    6       19.488717   0.000000
    7       21.385445   0.000000
    8       24.278162   0.000000
 
 -0.4000000E+00  0.2000000E+00  0.6666667E-01  0.1422222E-01
    1       -5.951469   1.000000
    2       -3.253399   1.000000
    3        3.628809   1.000000
    4        5.128615   1.000000
    5       17.633109   0.000000
    6       19.189504   0.000000
    7       21.384283   0.000000
    8       25.077201   0.000000
 
 -0.3333333E+00  0.2000000E+00  0.6666667E-01  0.1422222E-01
    1       -6.874090   1.000000
    2       -2.085377   1.000000
    3        3.479830   1.000000
    4        5.498970   1.000000
    5       17.959355   0.000000
    6       18.799860   0.000000
    7       21.260824   0.000000
    8       24.696667   0.000000
 
 -0.2666667E+00  0.2000000E+00  0.6666667E-01  0.1422222E-01
    1       -8.087126   1.000000
    2       -0.286744   1.000000
    3        3.492517   1.000000
    4        6.037910   1.000000
    5       18.030633   0.000000
    6       18.481674   0.000000
    7       20.982834   0.000000
    8       23.729700   0.000000
 
 -0.2000000E+00  0.2000000E+00  0.6666667E-01  0.1422222E-01
    1       -9.179011   1.000000
    2        1.665065   1.000000
    3        3.722264   1.000000
    4        6.661933   1.000000
    5       17.340826   0.000000
    6       18.597049   0.000000
    7       20.404446   0.000000
    8       23.051475   0.000000
 
 -0.1333333E+00  0.2000000E+00  0.6666667E-01  0.7111111E-02
    1      -10.073322   1.000000
    2        3.395103   1.000000
    3        4.394368   1.000000
    4        7.258095   1.000000
    5       16.501811   0.000000
    6       18.525304   0.000000
    7       19.439436   0.000000
    8       22.987418   0.000000
 
  0.3333333E+00  0.2666667E+00  0.6666667E-01  0.7111111E-02
    1       -9.440530   1.000000
    2        3.236169   1.000000
    3        4.306789   1.000000
    4        5.272563   1.000000
    5       14.733307   0.000000
    6       20.247644   0.000000
    7       20.974403   0.000000
    8       21.502678   0.000000
 
  0.4000000E+00  0.2666667E+00  0.6666667E-01  0.1422222E-01
    1       -8.552596   1.000000
    2        1.688434   1.000000
    3        3.644676   1.000000
    4        4.767638   1.000000
    5       15.419564   0.000000
    6       20.008252   0.000000
    7       21.267032   0.000000
    8       22.397656   0.000000
 
  0.4666667E+00  0.2666667E+00  0.6666667E-01  0.1422222E-01
    1       -7.470490   1.000000
    2       -0.057855   1.000000
    3        3.156946   1.000000
    4        4.329987   1.000000
    5       16.119988   0.000000
    6       20.526774   0.000000
    7       21.310297   0.000000
    8       22.950491   0.000000
 
 -0.4666667E+00  0.2666667E+00  0.6666667E-01  0.1422222E-01
    1       -6.273059   1.000000
    2       -1.714261   1.000000
    3        2.648029   1.000000
    4        4.204330   1.000000
    5       16.595622   0.000000
    6       21.018625   0.000000
    7       21.879146   0.000000
    8       23.252760   0.000000
 
 -0.4000000E+00  0.2666667E+00  0.6666667E-01  0.1422222E-01
    1       -5.382531   1.000000
    2       -2.781618   1.000000
    3        2.183715   1.000000
    4        4.385842   1.000000
    5       16.980781   0.000000
    6       20.703177   0.000000
    7       22.781080   0.000000
    8       23.912875   0.000000
 
 -0.3333333E+00  0.2666667E+00  0.6666667E-01  0.1422222E-01
    1       -5.923771   1.000000
    2       -2.110772   1.000000
    3        1.868786   1.000000
    4        4.796668   1.000000
    5       17.407173   0.000000
    6       20.177430   0.000000
    7       22.760892   0.000000
    8       24.502204   0.000000
 
 -0.2666667E+00  0.2666667E+00  0.6666667E-01  0.1422222E-01
    1       -7.102318   1.000000
    2       -0.531854   1.000000
    3        1.788238   1.000000
    4        5.371396   1.000000
    5       17.887726   0.000000
    6       19.396880   0.000000
    7       22.512729   0.000000
    8       23.639312   0.000000
 
 -0.2000000E+00  0.2666667E+00  0.6666667E-01  0.7111111E-02
    1       -8.228721   1.000000
    2        0.970039   1.000000
    3        2.226943   1.000000
    4        6.032506   1.000000
    5       18.337670   0.000000
    6       18.377124   0.000000
    7       21.754967   0.000000
    8       22.940212   0.000000
 
  0.4000000E+00  0.3333333E+00  0.6666667E-01  0.7111111E-02
    1       -8.046152   1.000000
    2        1.574134   1.000000
    3        3.429911   1.000000
    4        3.932279   1.000000
    5       14.612313   0.000000
    6       18.373900   0.000000
    7       22.830028   0.000000
    8       23.496722   0.000000
 
  0.4666667E+00  0.3333333E+00  0.6666667E-01  0.1422222E-01
    1       -7.037518   1.000000
    2        0.294739   1.000000
    3        2.632379   1.000000
    4        3.555408   1.000000
    5       15.350434   0.000000
    6       18.433424   0.000000
    7       22.967279   0.000000
    8       24.223431   0.000000
 
 -0.4666667E+00  0.3333333E+00  0.6666667E-01  0.1422222E-01
    1       -5.881162   1.000000
    2       -1.065380   1.000000
    3        1.745910   1.000000
    4        3.484427   1.000000
    5       15.951906   0.000000
    6       19.496269   0.000000
    7       22.842857   0.000000
    8       24.496632   0.000000
 