<?xml version="1.0" encoding="ISO-8859-1"?>
<modeling>
 <generator>
  <i name="program" type="string">vasp </i>
  <i name="version" type="string">5.4.4.18Apr17-6-g9f103f2a35  </i>
  <i name="subversion" type="string">(build Jan 25 2021 16:16:55) complex            parallel </i>
  <i name="platform" type="string">LinuxIFC </i>
  <i name="date" type="string">2022 02 25 </i>
  <i name="time" type="string">04:22:34 </i>
 </generator>
 <incar>
  <i type="int" name="ISTART">     0</i>
  <i type="string" name="PREC">accurate</i>
  <i type="int" name="ICHARG">     2</i>
  <i type="int" name="IBRION">    -1</i>
  <i name="EDIFF">      0.00000100</i>
  <i type="int" name="NSW">     0</i>
  <i type="int" name="ISMEAR">     0</i>
  <i name="SIGMA">      0.05000000</i>
  <i type="int" name="LORBIT">    11</i>
  <v type="int" name="KPOINT_BSE">    -1     0     0     0</v>
 </incar>
 <structure name="primitive_cell" >
  <crystal>
   <varray name="basis" >
    <v>       0.00000000       3.28283700       3.28283700 </v>
    <v>       3.28283700       0.00000000       3.28283700 </v>
    <v>       3.28283700       3.28283700       0.00000000 </v>
   </varray>
   <i name="volume">     70.75839193 </i>
   <varray name="rec_basis" >
    <v>      -0.15230729       0.15230729       0.15230729 </v>
    <v>       0.15230729      -0.15230729       0.15230729 </v>
    <v>       0.15230729       0.15230729      -0.15230729 </v>
   </varray>
  </crystal>
  <varray name="positions" >
   <v>      -0.50000000      -0.50000000      -0.50000000 </v>
   <v>       0.00000000       0.00000000       0.00000000 </v>
  </varray>
 </structure>
 <varray name="primitive_index" >
  <v type="int" >        1 </v>
  <v type="int" >        2 </v>
 </varray>
 <kpoints>
  <generation param="Monkhorst-Pack">
   <v type="int" name="divisions">      11       11       11 </v>
   <v name="usershift">      0.00000000       0.00000000       0.00000000 </v>
   <v name="genvec1">      0.09090909      -0.00000000      -0.00000000 </v>
   <v name="genvec2">      0.00000000       0.09090909       0.00000000 </v>
   <v name="genvec3">     -0.00000000       0.00000000       0.09090909 </v>
   <v name="shift">      0.00000000       0.00000000       0.00000000 </v>
  </generation>
  <varray name="kpointlist" >
   <v>       0.00000000       0.00000000       0.00000000 </v>
   <v>       0.09090909       0.00000000       0.00000000 </v>
   <v>       0.18181818       0.00000000       0.00000000 </v>
   <v>       0.27272727      -0.00000000       0.00000000 </v>
   <v>       0.36363636       0.00000000       0.00000000 </v>
   <v>       0.45454545       0.00000000       0.00000000 </v>
   <v>       0.09090909       0.09090909       0.00000000 </v>
   <v>       0.18181818       0.09090909       0.00000000 </v>
   <v>       0.27272727       0.09090909       0.00000000 </v>
   <v>       0.36363636       0.09090909       0.00000000 </v>
   <v>       0.45454545       0.09090909       0.00000000 </v>
   <v>      -0.45454545       0.09090909      -0.00000000 </v>
   <v>      -0.36363636       0.09090909       0.00000000 </v>
   <v>      -0.27272727       0.09090909      -0.00000000 </v>
   <v>      -0.18181818       0.09090909      -0.00000000 </v>
   <v>      -0.09090909       0.09090909      -0.00000000 </v>
   <v>       0.18181818       0.18181818       0.00000000 </v>
   <v>       0.27272727       0.18181818       0.00000000 </v>
   <v>       0.36363636       0.18181818       0.00000000 </v>
   <v>       0.45454545       0.18181818       0.00000000 </v>
   <v>      -0.45454545       0.18181818      -0.00000000 </v>
   <v>      -0.36363636       0.18181818      -0.00000000 </v>
   <v>      -0.27272727       0.18181818      -0.00000000 </v>
   <v>      -0.18181818       0.18181818      -0.00000000 </v>
   <v>       0.27272727       0.27272727       0.00000000 </v>
   <v>       0.36363636       0.27272727       0.00000000 </v>
   <v>       0.45454545       0.27272727       0.00000000 </v>
   <v>      -0.45454545       0.27272727      -0.00000000 </v>
   <v>      -0.36363636       0.27272727      -0.00000000 </v>
   <v>      -0.27272727       0.27272727      -0.00000000 </v>
   <v>       0.36363636       0.36363636       0.00000000 </v>
   <v>       0.45454545       0.36363636       0.00000000 </v>
   <v>      -0.45454545       0.36363636       0.00000000 </v>
   <v>      -0.36363636       0.36363636      -0.00000000 </v>
   <v>       0.45454545       0.45454545       0.00000000 </v>
   <v>      -0.45454545       0.45454545      -0.00000000 </v>
   <v>       0.27272727       0.18181818       0.09090909 </v>
   <v>       0.36363636       0.18181818       0.09090909 </v>
   <v>       0.45454545       0.18181818       0.09090909 </v>
   <v>      -0.45454545       0.18181818       0.09090909 </v>
   <v>       0.36363636       0.27272727       0.09090909 </v>
   <v>       0.45454545       0.27272727       0.09090909 </v>
   <v>      -0.45454545       0.27272727       0.09090909 </v>
   <v>      -0.36363636       0.27272727       0.09090909 </v>
   <v>      -0.27272727       0.27272727       0.09090909 </v>
   <v>      -0.18181818       0.27272727       0.09090909 </v>
   <v>       0.45454545       0.36363636       0.09090909 </v>
   <v>      -0.45454545       0.36363636       0.09090909 </v>
   <v>      -0.36363636       0.36363636       0.09090909 </v>
   <v>      -0.27272727       0.36363636       0.09090909 </v>
   <v>      -0.45454545       0.45454545       0.09090909 </v>
   <v>      -0.36363636       0.45454545       0.09090909 </v>
   <v>      -0.45454545       0.36363636       0.18181818 </v>
   <v>      -0.36363636       0.36363636       0.18181818 </v>
   <v>      -0.36363636       0.45454545       0.18181818 </v>
   <v>      -0.27272727       0.45454545       0.18181818 </v>
  </varray>
  <varray name="weights" >
   <v>       0.00075131 </v>
   <v>       0.00601052 </v>
   <v>       0.00601052 </v>
   <v>       0.00601052 </v>
   <v>       0.00601052 </v>
   <v>       0.00601052 </v>
   <v>       0.00450789 </v>
   <v>       0.01803156 </v>
   <v>       0.01803156 </v>
   <v>       0.01803156 </v>
   <v>       0.01803156 </v>
   <v>       0.01803156 </v>
   <v>       0.01803156 </v>
   <v>       0.01803156 </v>
   <v>       0.01803156 </v>
   <v>       0.00901578 </v>
   <v>       0.00450789 </v>
   <v>       0.01803156 </v>
   <v>       0.01803156 </v>
   <v>       0.01803156 </v>
   <v>       0.01803156 </v>
   <v>       0.01803156 </v>
   <v>       0.01803156 </v>
   <v>       0.00901578 </v>
   <v>       0.00450789 </v>
   <v>       0.01803156 </v>
   <v>       0.01803156 </v>
   <v>       0.01803156 </v>
   <v>       0.01803156 </v>
   <v>       0.00901578 </v>
   <v>       0.00450789 </v>
   <v>       0.01803156 </v>
   <v>       0.01803156 </v>
   <v>       0.00901578 </v>
   <v>       0.00450789 </v>
   <v>       0.00901578 </v>
   <v>       0.01803156 </v>
   <v>       0.03606311 </v>
   <v>       0.03606311 </v>
   <v>       0.03606311 </v>
   <v>       0.01803156 </v>
   <v>       0.03606311 </v>
   <v>       0.03606311 </v>
   <v>       0.03606311 </v>
   <v>       0.03606311 </v>
   <v>       0.01803156 </v>
   <v>       0.01803156 </v>
   <v>       0.03606311 </v>
   <v>       0.03606311 </v>
   <v>       0.01803156 </v>
   <v>       0.01803156 </v>
   <v>       0.01803156 </v>
   <v>       0.01803156 </v>
   <v>       0.03606311 </v>
   <v>       0.01803156 </v>
   <v>       0.01803156 </v>
  </varray>
 </kpoints>
 <parameters>
  <separator name="general" >
   <i type="string" name="SYSTEM">unknown system</i>
   <i type="logical" name="LCOMPAT"> F  </i>
  </separator>
  <separator name="electronic" >
   <i type="string" name="PREC">accura</i>
   <i name="ENMAX">    237.83500000</i>
   <i name="ENAUG">    391.91400000</i>
   <i name="EDIFF">      0.00000100</i>
   <i type="int" name="IALGO">    38</i>
   <i type="int" name="IWAVPR">    10</i>
   <i type="int" name="NBANDS">    14</i>
   <i name="NELECT">     20.00000000</i>
   <i type="int" name="TURBO">     0</i>
   <i type="int" name="IRESTART">     0</i>
   <i type="int" name="NREBOOT">     0</i>
   <i type="int" name="NMIN">     0</i>
   <i name="EREF">      0.00000000</i>
   <separator name="electronic smearing" >
    <i type="int" name="ISMEAR">     0</i>
    <i name="SIGMA">      0.05000000</i>
    <i name="KSPACING">      0.50000000</i>
    <i type="logical" name="KGAMMA"> T  </i>
   </separator>
   <separator name="electronic projectors" >
    <i type="logical" name="LREAL"> F  </i>
    <v name="ROPT">      0.00000000      0.00000000</v>
    <i type="int" name="LMAXPAW">  -100</i>
    <i type="int" name="LMAXMIX">     2</i>
    <i type="logical" name="NLSPLINE"> F  </i>
   </separator>
   <separator name="electronic startup" >
    <i type="int" name="ISTART">     0</i>
    <i type="int" name="ICHARG">     2</i>
    <i type="int" name="INIWAV">     1</i>
   </separator>
   <separator name="electronic spin" >
    <i type="int" name="ISPIN">     1</i>
    <i type="logical" name="LNONCOLLINEAR"> F  </i>
    <v name="MAGMOM">      1.00000000      1.00000000</v>
    <i name="NUPDOWN">     -1.00000000</i>
    <i type="logical" name="LSORBIT"> F  </i>
    <v name="SAXIS">      0.00000000      0.00000000      1.00000000</v>
    <i type="logical" name="LSPIRAL"> F  </i>
    <v name="QSPIRAL">      0.00000000      0.00000000      0.00000000</v>
    <i type="logical" name="LZEROZ"> F  </i>
   </separator>
   <separator name="electronic exchange-correlation" >
    <i type="logical" name="LASPH"> F  </i>
    <i type="logical" name="LMETAGGA"> F  </i>
   </separator>
   <separator name="electronic convergence" >
    <i type="int" name="NELM">    60</i>
    <i type="int" name="NELMDL">    -5</i>
    <i type="int" name="NELMIN">     2</i>
    <i name="ENINI">    237.83500000</i>
    <separator name="electronic convergence detail" >
     <i type="logical" name="LDIAG"> T  </i>
     <i type="logical" name="LSUBROT"> F  </i>
     <i name="WEIMIN">      0.00000000</i>
     <i name="EBREAK">      0.00000002</i>
     <i name="DEPER">      0.30000000</i>
     <i type="int" name="NRMM">     4</i>
     <i name="TIME">      0.40000000</i>
    </separator>
   </separator>
   <separator name="electronic mixer" >
    <i name="AMIX">      0.40000000</i>
    <i name="BMIX">      1.00000000</i>
    <i name="AMIN">      0.10000000</i>
    <i name="AMIX_MAG">      1.60000000</i>
    <i name="BMIX_MAG">      1.00000000</i>
    <separator name="electronic mixer details" >
     <i type="int" name="IMIX">     4</i>
     <i type="logical" name="MIXFIRST"> F  </i>
     <i type="int" name="MAXMIX">   -45</i>
     <i name="WC">    100.00000000</i>
     <i type="int" name="INIMIX">     1</i>
     <i type="int" name="MIXPRE">     1</i>
     <i type="int" name="MREMOVE">     5</i>
    </separator>
   </separator>
   <separator name="electronic dipolcorrection" >
    <i type="logical" name="LDIPOL"> F  </i>
    <i type="logical" name="LMONO"> F  </i>
    <i type="int" name="IDIPOL">     0</i>
    <i name="EPSILON">      1.00000000</i>
    <v name="DIPOL">   -100.00000000   -100.00000000   -100.00000000</v>
    <i name="EFIELD">      0.00000000</i>
   </separator>
  </separator>
  <separator name="grids" >
   <i type="int" name="NGX">    24</i>
   <i type="int" name="NGY">    24</i>
   <i type="int" name="NGZ">    24</i>
   <i type="int" name="NGXF">    48</i>
   <i type="int" name="NGYF">    48</i>
   <i type="int" name="NGZF">    48</i>
   <i type="logical" name="ADDGRID"> F  </i>
  </separator>
  <separator name="ionic" >
   <i type="int" name="NSW">     0</i>
   <i type="int" name="IBRION">    -1</i>
   <i type="int" name="MDALGO">     0</i>
   <i type="int" name="ISIF">     2</i>
   <i name="PSTRESS">      0.00000000</i>
   <i name="EDIFFG">      0.00001000</i>
   <i type="int" name="NFREE">     0</i>
   <i name="POTIM">      0.50000000</i>
   <i name="SMASS">     -3.00000000</i>
   <i name="SCALEE">      1.00000000</i>
  </separator>
  <separator name="ionic md" >
   <i name="TEBEG">      0.00010000</i>
   <i name="TEEND">      0.00010000</i>
   <i type="int" name="NBLOCK">     1</i>
   <i type="int" name="KBLOCK">     1</i>
   <i type="int" name="NPACO">   256</i>
   <i name="APACO">     16.00000000</i>
  </separator>
  <separator name="symmetry" >
   <i type="int" name="ISYM">     2</i>
   <i name="SYMPREC">      0.00001000</i>
  </separator>
  <separator name="dos" >
   <i type="int" name="LORBIT">    11</i>
   <v name="RWIGS">     -1.00000000     -1.00000000</v>
   <i type="int" name="NEDOS">   301</i>
   <i name="EMIN">     10.00000000</i>
   <i name="EMAX">    -10.00000000</i>
   <i name="EFERMI">      0.00000000</i>
  </separator>
  <separator name="writing" >
   <i type="int" name="NWRITE">     2</i>
   <i type="logical" name="LWAVE"> T  </i>
   <i type="logical" name="LDOWNSAMPLE"> F  </i>
   <i type="logical" name="LCHARG"> T  </i>
   <i type="logical" name="LPARD"> F  </i>
   <i type="logical" name="LVTOT"> F  </i>
   <i type="logical" name="LVHAR"> F  </i>
   <i type="logical" name="LELF"> F  </i>
   <i type="logical" name="LOPTICS"> F  </i>
   <v name="STM">      0.00000000      0.00000000      0.00000000      0.00000000      0.00000000      0.00000000      0.00000000</v>
  </separator>
  <separator name="performance" >
   <i type="int" name="NPAR">     2</i>
   <i type="int" name="NSIM">     4</i>
   <i type="int" name="NBLK">    -1</i>
   <i type="logical" name="LPLANE"> T  </i>
   <i type="logical" name="LSCALAPACK"> T  </i>
   <i type="logical" name="LSCAAWARE"> F  </i>
   <i type="logical" name="LSCALU"> F  </i>
   <i type="logical" name="LASYNC"> F  </i>
   <i type="logical" name="LORBITALREAL"> F  </i>
  </separator>
  <separator name="miscellaneous" >
   <i type="int" name="IDIOT">     3</i>
   <i type="int" name="ISPECIAL">     0</i>
   <i type="logical" name="LMUSIC"> F  </i>
   <v name="POMASS">    127.60000000    207.20000000</v>
   <v name="DARWINR">      0.00000000      0.00000000</v>
   <v name="DARWINV">      1.00000000      1.00000000</v>
   <i type="logical" name="LCORR"> T  </i>
  </separator>
  <i type="logical" name="GGA_COMPAT"> T  </i>
  <i type="logical" name="LBERRY"> F  </i>
  <i type="int" name="ICORELEVEL">     0</i>
  <i type="logical" name="LDAU"> F  </i>
  <i type="int" name="I_CONSTRAINED_M">     0</i>
  <separator name="electronic exchange-correlation" >
   <i type="string" name="GGA">--</i>
   <i type="int" name="VOSKOWN">     0</i>
   <i type="logical" name="LHFCALC"> F  </i>
   <i type="string" name="PRECFOCK"></i>
   <i type="logical" name="LSYMGRAD"> F  </i>
   <i type="logical" name="LHFONE"> F  </i>
   <i type="logical" name="LRHFCALC"> F  </i>
   <i type="logical" name="LTHOMAS"> F  </i>
   <i type="logical" name="LMODELHF"> F  </i>
   <i name="ENCUT4O">     -1.00000000</i>
   <i type="int" name="EXXOEP">     0</i>
   <i type="int" name="FOURORBIT">     0</i>
   <i name="AEXX">      0.00000000</i>
   <i name="HFALPHA">      0.00000000</i>
   <i name="MCALPHA">      0.00000000</i>
   <i name="ALDAX">      1.00000000</i>
   <i name="AGGAX">      1.00000000</i>
   <i name="ALDAC">      1.00000000</i>
   <i name="AGGAC">      1.00000000</i>
   <i type="int" name="NKREDX">     1</i>
   <i type="int" name="NKREDY">     1</i>
   <i type="int" name="NKREDZ">     1</i>
   <i type="logical" name="SHIFTRED"> F  </i>
   <i type="logical" name="ODDONLY"> F  </i>
   <i type="logical" name="EVENONLY"> F  </i>
   <i type="int" name="LMAXFOCK">     0</i>
   <i type="int" name="NMAXFOCKAE">     0</i>
   <i type="logical" name="LFOCKAEDFT"> F  </i>
   <i name="HFSCREEN">      0.00000000</i>
   <i name="HFSCREENC">      0.00000000</i>
   <i type="int" name="NBANDSGWLOW">     0</i>
  </separator>
  <separator name="vdW DFT" >
   <i type="logical" name="LUSE_VDW"> F  </i>
   <i name="Zab_VDW">     -0.84910000</i>
   <i name="PARAM1">      0.12340000</i>
   <i name="PARAM2">      1.00000000</i>
   <i name="PARAM3">      0.00000000</i>
  </separator>
  <separator name="model GW" >
   <i type="int" name="MODEL_GW">     0</i>
   <i name="MODEL_EPS0">     21.22751758</i>
   <i name="MODEL_ALPHA">      1.00000000</i>
  </separator>
  <separator name="linear response parameters" >
   <i type="logical" name="LEPSILON"> F  </i>
   <i type="logical" name="LRPA"> F  </i>
   <i type="logical" name="LNABLA"> F  </i>
   <i type="logical" name="LVEL"> F  </i>
   <i type="int" name="KINTER">     0</i>
   <i name="CSHIFT">      0.10000000</i>
   <i name="OMEGAMAX">     -1.00000000</i>
   <i name="DEG_THRESHOLD">      0.00200000</i>
   <i name="RTIME">     -0.10000000</i>
   <i name="WPLASMAI">      0.00000000</i>
   <v name="DFIELD">      0.00000000      0.00000000      0.00000000</v>
   <v name="WPLASMA">      0.00000000      0.00000000      0.00000000      0.00000000      0.00000000      0.00000000      0.00000000      0.00000000      0.00000000</v>
  </separator>
  <separator name="orbital magnetization" >
   <i type="logical" name="NUCIND"> F  </i>
   <v name="MAGPOS">      0.00000000      0.00000000      0.00000000</v>
   <i type="logical" name="LNICSALL"> T  </i>
   <i type="logical" name="ORBITALMAG"> F  </i>
   <i type="logical" name="LMAGBLOCH"> F  </i>
   <i type="logical" name="LCHIMAG"> F  </i>
   <i type="logical" name="LGAUGE"> T  </i>
   <i type="int" name="MAGATOM">     0</i>
   <v name="MAGDIPOL">      0.00000000      0.00000000      0.00000000</v>
   <v name="AVECCONST">      0.00000000      0.00000000      0.00000000</v>
  </separator>
  <separator name="response functions" >
   <i type="logical" name="LADDER"> F  </i>
   <i type="logical" name="LRPAFORCE"> F  </i>
   <i type="logical" name="LFXC"> F  </i>
   <i type="logical" name="LHARTREE"> T  </i>
   <i type="int" name="IBSE">     0</i>
   <v type="int" name="KPOINT">    -1     0     0     0</v>
   <i type="logical" name="LTCTE"> F  </i>
   <i type="logical" name="LTETE"> F  </i>
   <i type="logical" name="LTRIPLET"> F  </i>
   <i type="logical" name="LFXCEPS"> F  </i>
   <i type="logical" name="LFXHEG"> F  </i>
   <i type="int" name="NATURALO">     2</i>
   <i type="logical" name="L2ORDER"> F  </i>
   <i type="logical" name="LMP2LT"> F  </i>
   <i type="logical" name="LUSEW"> F  </i>
   <i name="ENCUTGW">     -2.00000000</i>
   <i name="ENCUTGWSOFT">     -2.00000000</i>
   <i name="ENCUTLF">     -1.00000000</i>
   <i type="int" name="LMAXMP2">    -1</i>
   <i name="SCISSOR">      0.00000000</i>
   <i type="int" name="NOMEGA">     0</i>
   <i type="int" name="NOMEGAR">     0</i>
   <i type="int" name="NBANDSGW">    -1</i>
   <i type="int" name="NBANDSO">    -1</i>
   <i type="int" name="NBANDSV">    -1</i>
   <i type="int" name="NELM">     1</i>
   <i type="int" name="NELMHF">     1</i>
   <i type="int" name="DIM">     3</i>
   <i type="int" name="ANTIRES">     0</i>
   <i name="OMEGAMAX">    -30.00000000</i>
   <i name="OMEGAMIN">    -30.00000000</i>
   <i name="OMEGATL">   -200.00000000</i>
   <i type="int" name="OMEGAGRID">   140</i>
   <i name="CSHIFT">     -0.10000000</i>
   <i type="logical" name="SELFENERGY"> F  </i>
   <i type="logical" name="LSPECTRAL"> F  </i>
   <i type="logical" name="LSPECTRALGW"> F  </i>
   <i type="logical" name="LSINGLES"> F  </i>
   <i type="logical" name="LFERMIGW"> F  </i>
   <i type="logical" name="ODDONLYGW"> F  </i>
   <i type="logical" name="EVENONLYGW"> F  </i>
   <i type="int" name="NKREDLFX">     1</i>
   <i type="int" name="NKREDLFY">     1</i>
   <i type="int" name="NKREDLFZ">     1</i>
   <i type="int" name="MAXMEM">  2800</i>
   <i type="int" name="TELESCOPE">     0</i>
   <i type="int" name="TAUPAR">     1</i>
   <i type="int" name="OMEGAPAR">    -1</i>
   <i name="LAMBDA">      1.00000000</i>
  </separator>
  <separator name="External order field" >
   <i name="OFIELD_KAPPA">      0.00000000</i>
   <v name="OFIELD_K">      0.00000000      0.00000000      0.00000000</v>
   <i name="OFIELD_Q6_NEAR">      0.00000000</i>
   <i name="OFIELD_Q6_FAR">      0.00000000</i>
   <i name="OFIELD_A">      0.00000000</i>
  </separator>
 </parameters>
 <atominfo>
  <atoms>       2 </atoms>
  <types>       2 </types>
  <array name="atoms" >
   <dimension dim="1">ion</dimension>
   <field type="string">element</field>
   <field type="int">atomtype</field>
   <set>
    <rc><c>Te</c><c>   1</c></rc>
    <rc><c>Pb</c><c>   2</c></rc>
   </set>
  </array>
  <array name="atomtypes" >
   <dimension dim="1">type</dimension>
   <field type="int">atomspertype</field>
   <field type="string">element</field>
   <field>mass</field>
   <field>valence</field>
   <field type="string">pseudopotential</field>
   <set>
    <rc><c>   1</c><c>Te</c><c>    127.60000000</c><c>      6.00000000</c><c>  PAW_PBE Te 08Apr2002                  </c></rc>
    <rc><c>   1</c><c>Pb</c><c>    207.20000000</c><c>     14.00000000</c><c>  PAW_PBE Pb_d 06Sep2000                </c></rc>
   </set>
  </array>
 </atominfo>
 <structure name="initialpos" >
  <crystal>
   <varray name="basis" >
    <v>       0.00000000       3.28283700       3.28283700 </v>
    <v>       3.28283700       0.00000000       3.28283700 </v>
    <v>       3.28283700       3.28283700       0.00000000 </v>
   </varray>
   <i name="volume">     70.75839193 </i>
   <varray name="rec_basis" >
    <v>      -0.15230729       0.15230729       0.15230729 </v>
    <v>       0.15230729      -0.15230729       0.15230729 </v>
    <v>       0.15230729       0.15230729      -0.15230729 </v>
   </varray>
  </crystal>
  <varray name="positions" >
   <v>       0.50000000       0.50000000       0.50000000 </v>
   <v>       0.00000000       0.00000000       0.00000000 </v>
  </varray>
 </structure>
 <calculation>
  <scstep>
   <time name="dav">    0.18    0.18</time>
   <time name="total">    0.19    0.19</time>
   <energy>
    <i name="alphaZ">     34.34801982 </i>
    <i name="ewald">  -1367.19579539 </i>
    <i name="hartreedc">   -516.32449373 </i>
    <i name="XCdc">      9.60063525 </i>
    <i name="pawpsdc">   1643.15449491 </i>
    <i name="pawaedc">  -1588.00105475 </i>
    <i name="eentropy">     -0.00054900 </i>
    <i name="bandstr">      6.99737244 </i>
    <i name="atom">   1884.81714005 </i>
    <i name="e_fr_energy">    107.39576960 </i>
    <i name="e_wo_entrp">    107.39631860 </i>
    <i name="e_0_energy">    107.39604410 </i>
   </energy>
  </scstep>
  <scstep>
   <time name="dav">    0.19    0.19</time>
   <time name="total">    0.20    0.20</time>
   <energy>
    <i name="e_fr_energy">     -1.91443879 </i>
    <i name="e_wo_entrp">     -1.91439085 </i>
    <i name="e_0_energy">     -1.91441482 </i>
   </energy>
  </scstep>
  <scstep>
   <time name="dav">    0.20    0.20</time>
   <time name="total">    0.20    0.20</time>
   <energy>
    <i name="e_fr_energy">     -7.57277753 </i>
    <i name="e_wo_entrp">     -7.57277753 </i>
    <i name="e_0_energy">     -7.57277753 </i>
   </energy>
  </scstep>
  <scstep>
   <time name="dav">    0.21    0.21</time>
   <time name="total">    0.21    0.21</time>
   <energy>
    <i name="e_fr_energy">     -7.66241203 </i>
    <i name="e_wo_entrp">     -7.66241203 </i>
    <i name="e_0_energy">     -7.66241203 </i>
   </energy>
  </scstep>
  <scstep>
   <time name="dav">    0.20    0.20</time>
   <time name="total">    0.21    0.21</time>
   <energy>
    <i name="e_fr_energy">     -7.66351246 </i>
    <i name="e_wo_entrp">     -7.66351246 </i>
    <i name="e_0_energy">     -7.66351246 </i>
   </energy>
  </scstep>
  <scstep>
   <time name="dav">    0.20    0.20</time>
   <time name="total">    0.22    0.22</time>
   <energy>
    <i name="e_fr_energy">     -7.52110246 </i>
    <i name="e_wo_entrp">     -7.52110246 </i>
    <i name="e_0_energy">     -7.52110246 </i>
   </energy>
  </scstep>
  <scstep>
   <time name="dav">    0.20    0.20</time>
   <time name="total">    0.22    0.22</time>
   <energy>
    <i name="e_fr_energy">     -7.51693694 </i>
    <i name="e_wo_entrp">     -7.51693694 </i>
    <i name="e_0_energy">     -7.51693694 </i>
   </energy>
  </scstep>
  <scstep>
   <time name="dav">    0.17    0.17</time>
   <time name="total">    0.19    0.19</time>
   <energy>
    <i name="e_fr_energy">     -7.51903091 </i>
    <i name="e_wo_entrp">     -7.51903091 </i>
    <i name="e_0_energy">     -7.51903091 </i>
   </energy>
  </scstep>
  <scstep>
   <time name="dav">    0.21    0.21</time>
   <time name="total">    0.23    0.23</time>
   <energy>
    <i name="e_fr_energy">     -7.51888103 </i>
    <i name="e_wo_entrp">     -7.51888103 </i>
    <i name="e_0_energy">     -7.51888103 </i>
   </energy>
  </scstep>
  <scstep>
   <time name="dav">    0.17    0.17</time>
   <time name="total">    0.19    0.19</time>
   <energy>
    <i name="e_fr_energy">     -7.51894208 </i>
    <i name="e_wo_entrp">     -7.51894208 </i>
    <i name="e_0_energy">     -7.51894208 </i>
   </energy>
  </scstep>
  <scstep>
   <time name="dav">    0.19    0.19</time>
   <time name="total">    0.22    0.22</time>
   <energy>
    <i name="e_fr_energy">     -7.51894994 </i>
    <i name="e_wo_entrp">     -7.51894994 </i>
    <i name="e_0_energy">     -7.51894994 </i>
   </energy>
  </scstep>
  <scstep>
   <time name="dav">    0.19    0.19</time>
   <time name="total">    0.20    0.20</time>
   <energy>
    <i name="alphaZ">     34.34801982 </i>
    <i name="ewald">  -1367.19579539 </i>
    <i name="hartreedc">   -512.50949620 </i>
    <i name="XCdc">      9.72985338 </i>
    <i name="pawpsdc">   1853.93194175 </i>
    <i name="pawaedc">  -1798.12000343 </i>
    <i name="eentropy">     -0.00000000 </i>
    <i name="bandstr">   -112.52061033 </i>
    <i name="atom">   1884.81714005 </i>
    <i name="e_fr_energy">     -7.51895034 </i>
    <i name="e_wo_entrp">     -7.51895034 </i>
    <i name="e_0_energy">     -7.51895034 </i>
   </energy>
  </scstep>
  <structure>
   <crystal>
    <varray name="basis" >
     <v>       0.00000000       3.28283700       3.28283700 </v>
     <v>       3.28283700       0.00000000       3.28283700 </v>
     <v>       3.28283700       3.28283700       0.00000000 </v>
    </varray>
    <i name="volume">     70.75839193 </i>
    <varray name="rec_basis" >
     <v>      -0.15230729       0.15230729       0.15230729 </v>
     <v>       0.15230729      -0.15230729       0.15230729 </v>
     <v>       0.15230729       0.15230729      -0.15230729 </v>
    </varray>
   </crystal>
   <varray name="positions" >
    <v>       0.50000000       0.50000000       0.50000000 </v>
    <v>       0.00000000       0.00000000       0.00000000 </v>
   </varray>
  </structure>
  <varray name="forces" >
   <v>       0.00000000      -0.00000000       0.00000000 </v>
   <v>      -0.00000000       0.00000000      -0.00000000 </v>
  </varray>
  <varray name="stress" >
   <v>      -4.29217725      -0.00000000      -0.00000000 </v>
   <v>      -0.00000000      -4.29217725       0.00000000 </v>
   <v>       0.00000000      -0.00000000      -4.29217725 </v>
  </varray>
  <energy>
   <i name="e_fr_energy">     -7.51895034 </i>
   <i name="e_wo_entrp">     -7.51895034 </i>
   <i name="e_0_energy">     -0.00000000 </i>
  </energy>
  <time name="totalsc">    2.65    2.71</time>
  <eigenvalues>
   <array>
    <dimension dim="1">band</dimension>
    <dimension dim="2">kpoint</dimension>
    <dimension dim="3">spin</dimension>
    <field>eigene</field>
    <field>occ</field>
    <set>
     <set comment="spin 1">
      <set comment="kpoint 1">
       <r>  -11.6079    1.0000 </r>
       <r>  -11.6079    1.0000 </r>
       <r>  -11.6029    1.0000 </r>
       <r>  -11.6029    1.0000 </r>
       <r>  -11.6029    1.0000 </r>
       <r>   -6.6125    1.0000 </r>
       <r>   -0.6950    1.0000 </r>
       <r>    3.8541    1.0000 </r>
       <r>    3.8541    1.0000 </r>
       <r>    3.8541    1.0000 </r>
       <r>    9.0430    0.0000 </r>
       <r>    9.0430    0.0000 </r>
       <r>    9.0430    0.0000 </r>
       <r>   10.9294    0.0000 </r>
      </set>
      <set comment="kpoint 2">
       <r>  -11.6078    1.0000 </r>
       <r>  -11.6078    1.0000 </r>
       <r>  -11.6021    1.0000 </r>
       <r>  -11.6010    1.0000 </r>
       <r>  -11.6010    1.0000 </r>
       <r>   -6.5461    1.0000 </r>
       <r>   -0.8979    1.0000 </r>
       <r>    3.8740    1.0000 </r>
       <r>    3.8740    1.0000 </r>
       <r>    3.9632    1.0000 </r>
       <r>    8.6033    0.0000 </r>
       <r>    8.7245    0.0000 </r>
       <r>    8.7245    0.0000 </r>
       <r>   10.8155    0.0000 </r>
      </set>
      <set comment="kpoint 3">
       <r>  -11.6106    1.0000 </r>
       <r>  -11.6106    1.0000 </r>
       <r>  -11.6017    1.0000 </r>
       <r>  -11.5982    1.0000 </r>
       <r>  -11.5982    1.0000 </r>
       <r>   -6.3511    1.0000 </r>
       <r>   -1.4208    1.0000 </r>
       <r>    3.9350    1.0000 </r>
       <r>    3.9350    1.0000 </r>
       <r>    4.2159    1.0000 </r>
       <r>    7.7770    0.0000 </r>
       <r>    8.0530    0.0000 </r>
       <r>    8.0530    0.0000 </r>
       <r>   10.8207    0.0000 </r>
      </set>
      <set comment="kpoint 4">
       <r>  -11.6143    1.0000 </r>
       <r>  -11.6143    1.0000 </r>
       <r>  -11.6011    1.0000 </r>
       <r>  -11.5941    1.0000 </r>
       <r>  -11.5941    1.0000 </r>
       <r>   -6.0438    1.0000 </r>
       <r>   -2.0984    1.0000 </r>
       <r>    4.0373    1.0000 </r>
       <r>    4.0373    1.0000 </r>
       <r>    4.4971    1.0000 </r>
       <r>    6.9812    0.0000 </r>
       <r>    7.3550    0.0000 </r>
       <r>    7.3550    0.0000 </r>
       <r>   11.2036    0.0000 </r>
      </set>
      <set comment="kpoint 5">
       <r>  -11.6177    1.0000 </r>
       <r>  -11.6177    1.0000 </r>
       <r>  -11.6004    1.0000 </r>
       <r>  -11.5905    1.0000 </r>
       <r>  -11.5904    1.0000 </r>
       <r>   -5.6680    1.0000 </r>
       <r>   -2.7738    1.0000 </r>
       <r>    4.1653    1.0000 </r>
       <r>    4.1653    1.0000 </r>
       <r>    4.7598    1.0000 </r>
       <r>    6.3337    0.0000 </r>
       <r>    6.7847    0.0000 </r>
       <r>    6.7847    0.0000 </r>
       <r>   11.9732    0.0000 </r>
      </set>
      <set comment="kpoint 6">
       <r>  -11.6193    1.0000 </r>
       <r>  -11.6193    1.0000 </r>
       <r>  -11.5996    1.0000 </r>
       <r>  -11.5881    1.0000 </r>
       <r>  -11.5881    1.0000 </r>
       <r>   -5.3516    1.0000 </r>
       <r>   -3.2546    1.0000 </r>
       <r>    4.2667    1.0000 </r>
       <r>    4.2667    1.0000 </r>
       <r>    4.9745    1.0000 </r>
       <r>    5.9110    0.0000 </r>
       <r>    6.4512    0.0000 </r>
       <r>    6.4512    0.0000 </r>
       <r>   13.0102    0.0000 </r>
      </set>
      <set comment="kpoint 7">
       <r>  -11.6099    1.0000 </r>
       <r>  -11.6067    1.0000 </r>
       <r>  -11.6032    1.0000 </r>
       <r>  -11.6006    1.0000 </r>
       <r>  -11.6006    1.0000 </r>
       <r>   -6.5241    1.0000 </r>
       <r>   -0.9444    1.0000 </r>
       <r>    3.7203    1.0000 </r>
       <r>    3.7203    1.0000 </r>
       <r>    4.2882    1.0000 </r>
       <r>    7.8970    0.0000 </r>
       <r>    9.0546    0.0000 </r>
       <r>    9.0546    0.0000 </r>
       <r>   10.4364    0.0000 </r>
      </set>
      <set comment="kpoint 8">
       <r>  -11.6131    1.0000 </r>
       <r>  -11.6071    1.0000 </r>
       <r>  -11.6031    1.0000 </r>
       <r>  -11.5985    1.0000 </r>
       <r>  -11.5979    1.0000 </r>
       <r>   -6.3724    1.0000 </r>
       <r>   -1.3154    1.0000 </r>
       <r>    3.6287    1.0000 </r>
       <r>    3.6673    1.0000 </r>
       <r>    4.6192    1.0000 </r>
       <r>    7.1127    0.0000 </r>
       <r>    8.7185    0.0000 </r>
       <r>    8.7966    0.0000 </r>
       <r>   10.2841    0.0000 </r>
      </set>
      <set comment="kpoint 9">
       <r>  -11.6171    1.0000 </r>
       <r>  -11.6099    1.0000 </r>
       <r>  -11.6022    1.0000 </r>
       <r>  -11.5954    1.0000 </r>
       <r>  -11.5934    1.0000 </r>
       <r>   -6.1029    1.0000 </r>
       <r>   -1.8988    1.0000 </r>
       <r>    3.6213    1.0000 </r>
       <r>    3.7278    1.0000 </r>
       <r>    4.7305    1.0000 </r>
       <r>    6.6063    0.0000 </r>
       <r>    8.0620    0.0000 </r>
       <r>    8.2102    0.0000 </r>
       <r>   10.5046    0.0000 </r>
      </set>
      <set comment="kpoint 10">
       <r>  -11.6205    1.0000 </r>
       <r>  -11.6135    1.0000 </r>
       <r>  -11.6009    1.0000 </r>
       <r>  -11.5924    1.0000 </r>
       <r>  -11.5899    1.0000 </r>
       <r>   -5.7483    1.0000 </r>
       <r>   -2.5485    1.0000 </r>
       <r>    3.7100    1.0000 </r>
       <r>    3.8343    1.0000 </r>
       <r>    4.5458    1.0000 </r>
       <r>    6.5022    0.0000 </r>
       <r>    7.4465    0.0000 </r>
       <r>    7.5766    0.0000 </r>
       <r>   11.0884    0.0000 </r>
      </set>
      <set comment="kpoint 11">
       <r>  -11.6220    1.0000 </r>
       <r>  -11.6168    1.0000 </r>
       <r>  -11.5995    1.0000 </r>
       <r>  -11.5899    1.0000 </r>
       <r>  -11.5875    1.0000 </r>
       <r>   -5.3979    1.0000 </r>
       <r>   -3.0949    1.0000 </r>
       <r>    3.8177    1.0000 </r>
       <r>    3.8885    1.0000 </r>
       <r>    4.4118    1.0000 </r>
       <r>    6.5091    0.0000 </r>
       <r>    7.0268    0.0000 </r>
       <r>    7.1188    0.0000 </r>
       <r>   11.9950    0.0000 </r>
      </set>
      <set comment="kpoint 12">
       <r>  -11.6215    1.0000 </r>
       <r>  -11.6183    1.0000 </r>
       <r>  -11.5983    1.0000 </r>
       <r>  -11.5884    1.0000 </r>
       <r>  -11.5875    1.0000 </r>
       <r>   -5.2713    1.0000 </r>
       <r>   -3.2760    1.0000 </r>
       <r>    3.5876    1.0000 </r>
       <r>    4.1190    1.0000 </r>
       <r>    4.5929    1.0000 </r>
       <r>    6.2775    0.0000 </r>
       <r>    6.6413    0.0000 </r>
       <r>    7.3292    0.0000 </r>
       <r>   12.8559    0.0000 </r>
      </set>
      <set comment="kpoint 13">
       <r>  -11.6190    1.0000 </r>
       <r>  -11.6183    1.0000 </r>
       <r>  -11.5993    1.0000 </r>
       <r>  -11.5900    1.0000 </r>
       <r>  -11.5892    1.0000 </r>
       <r>   -5.5029    1.0000 </r>
       <r>   -2.9479    1.0000 </r>
       <r>    3.3892    1.0000 </r>
       <r>    4.3087    1.0000 </r>
       <r>    4.8286    1.0000 </r>
       <r>    6.1438    0.0000 </r>
       <r>    6.5178    0.0000 </r>
       <r>    7.7759    0.0000 </r>
       <r>   12.0275    0.0000 </r>
      </set>
      <set comment="kpoint 14">
       <r>  -11.6163    1.0000 </r>
       <r>  -11.6150    1.0000 </r>
       <r>  -11.6003    1.0000 </r>
       <r>  -11.5934    1.0000 </r>
       <r>  -11.5914    1.0000 </r>
       <r>   -5.8718    1.0000 </r>
       <r>   -2.3521    1.0000 </r>
       <r>    3.3123    1.0000 </r>
       <r>    4.3472    1.0000 </r>
       <r>    4.8457    1.0000 </r>
       <r>    6.3947    0.0000 </r>
       <r>    6.7504    0.0000 </r>
       <r>    8.3041    0.0000 </r>
       <r>   11.2343    0.0000 </r>
      </set>
      <set comment="kpoint 15">
       <r>  -11.6131    1.0000 </r>
       <r>  -11.6108    1.0000 </r>
       <r>  -11.6013    1.0000 </r>
       <r>  -11.5974    1.0000 </r>
       <r>  -11.5946    1.0000 </r>
       <r>   -6.2043    1.0000 </r>
       <r>   -1.7148    1.0000 </r>
       <r>    3.3764    1.0000 </r>
       <r>    4.2372    1.0000 </r>
       <r>    4.6106    1.0000 </r>
       <r>    7.0200    0.0000 </r>
       <r>    7.3012    0.0000 </r>
       <r>    8.7983    0.0000 </r>
       <r>   10.8114    0.0000 </r>
      </set>
      <set comment="kpoint 16">
       <r>  -11.6100    1.0000 </r>
       <r>  -11.6082    1.0000 </r>
       <r>  -11.6020    1.0000 </r>
       <r>  -11.6004    1.0000 </r>
       <r>  -11.5986    1.0000 </r>
       <r>   -6.4369    1.0000 </r>
       <r>   -1.1859    1.0000 </r>
       <r>    3.5796    1.0000 </r>
       <r>    4.0593    1.0000 </r>
       <r>    4.2666    1.0000 </r>
       <r>    7.8342    0.0000 </r>
       <r>    8.0264    0.0000 </r>
       <r>    9.0367    0.0000 </r>
       <r>   10.7018    0.0000 </r>
      </set>
      <set comment="kpoint 17">
       <r>  -11.6183    1.0000 </r>
       <r>  -11.6048    1.0000 </r>
       <r>  -11.6045    1.0000 </r>
       <r>  -11.5962    1.0000 </r>
       <r>  -11.5962    1.0000 </r>
       <r>   -6.2668    1.0000 </r>
       <r>   -1.4463    1.0000 </r>
       <r>    3.3896    1.0000 </r>
       <r>    3.3896    1.0000 </r>
       <r>    4.6997    1.0000 </r>
       <r>    6.7985    0.0000 </r>
       <r>    9.2035    0.0000 </r>
       <r>    9.2035    0.0000 </r>
       <r>    9.7191    0.0000 </r>
      </set>
      <set comment="kpoint 18">
       <r>  -11.6236    1.0000 </r>
       <r>  -11.6050    1.0000 </r>
       <r>  -11.6047    1.0000 </r>
       <r>  -11.5935    1.0000 </r>
       <r>  -11.5924    1.0000 </r>
       <r>   -6.0441    1.0000 </r>
       <r>   -1.8098    1.0000 </r>
       <r>    3.2564    1.0000 </r>
       <r>    3.2836    1.0000 </r>
       <r>    4.2043    1.0000 </r>
       <r>    7.1113    0.0000 </r>
       <r>    8.9343    0.0000 </r>
       <r>    9.0489    0.0000 </r>
       <r>    9.6980    0.0000 </r>
      </set>
      <set comment="kpoint 19">
       <r>  -11.6276    1.0000 </r>
       <r>  -11.6078    1.0000 </r>
       <r>  -11.6037    1.0000 </r>
       <r>  -11.5914    1.0000 </r>
       <r>  -11.5887    1.0000 </r>
       <r>   -5.7307    1.0000 </r>
       <r>   -2.3220    1.0000 </r>
       <r>    3.2496    1.0000 </r>
       <r>    3.2657    1.0000 </r>
       <r>    3.6656    1.0000 </r>
       <r>    7.5448    0.0000 </r>
       <r>    8.4404    0.0000 </r>
       <r>    8.5459    0.0000 </r>
       <r>   10.0312    0.0000 </r>
      </set>
      <set comment="kpoint 20">
       <r>  -11.6291    1.0000 </r>
       <r>  -11.6108    1.0000 </r>
       <r>  -11.6009    1.0000 </r>
       <r>  -11.5896    1.0000 </r>
       <r>  -11.5863    1.0000 </r>
       <r>   -5.3917    1.0000 </r>
       <r>   -2.8383    1.0000 </r>
       <r>    2.9566    1.0000 </r>
       <r>    3.3760    1.0000 </r>
       <r>    3.6452    1.0000 </r>
       <r>    7.5935    0.0000 </r>
       <r>    7.9590    0.0000 </r>
       <r>    8.3006    0.0000 </r>
       <r>   10.7169    0.0000 </r>
      </set>
      <set comment="kpoint 21">
       <r>  -11.6278    1.0000 </r>
       <r>  -11.6136    1.0000 </r>
       <r>  -11.5975    1.0000 </r>
       <r>  -11.5898    1.0000 </r>
       <r>  -11.5858    1.0000 </r>
       <r>   -5.1831    1.0000 </r>
       <r>   -3.1451    1.0000 </r>
       <r>    2.6261    1.0000 </r>
       <r>    3.6263    1.0000 </r>
       <r>    3.9228    1.0000 </r>
       <r>    7.1794    0.0000 </r>
       <r>    7.4065    0.0000 </r>
       <r>    8.6405    0.0000 </r>
       <r>   11.7101    0.0000 </r>
      </set>
      <set comment="kpoint 22">
       <r>  -11.6244    1.0000 </r>
       <r>  -11.6160    1.0000 </r>
       <r>  -11.5966    1.0000 </r>
       <r>  -11.5907    1.0000 </r>
       <r>  -11.5885    1.0000 </r>
       <r>   -5.2898    1.0000 </r>
       <r>   -3.0359    1.0000 </r>
       <r>    2.4795    1.0000 </r>
       <r>    3.9632    1.0000 </r>
       <r>    4.3128    1.0000 </r>
       <r>    6.7593    0.0000 </r>
       <r>    6.9512    0.0000 </r>
       <r>    9.0055    0.0000 </r>
       <r>   12.1835    0.0000 </r>
      </set>
      <set comment="kpoint 23">
       <r>  -11.6193    1.0000 </r>
       <r>  -11.6164    1.0000 </r>
       <r>  -11.5984    1.0000 </r>
       <r>  -11.5920    1.0000 </r>
       <r>  -11.5907    1.0000 </r>
       <r>   -5.6096    1.0000 </r>
       <r>   -2.6240    1.0000 </r>
       <r>    2.5551    1.0000 </r>
       <r>    4.2853    1.0000 </r>
       <r>    4.7331    1.0000 </r>
       <r>    6.4336    0.0000 </r>
       <r>    6.6866    0.0000 </r>
       <r>    9.2449    0.0000 </r>
       <r>   11.5458    0.0000 </r>
      </set>
      <set comment="kpoint 24">
       <r>  -11.6155    1.0000 </r>
       <r>  -11.6144    1.0000 </r>
       <r>  -11.6004    1.0000 </r>
       <r>  -11.5953    1.0000 </r>
       <r>  -11.5925    1.0000 </r>
       <r>   -5.9452    1.0000 </r>
       <r>   -2.1401    1.0000 </r>
       <r>    2.8639    1.0000 </r>
       <r>    4.4022    1.0000 </r>
       <r>    4.9045    1.0000 </r>
       <r>    6.4510    0.0000 </r>
       <r>    6.7846    0.0000 </r>
       <r>    9.2168    0.0000 </r>
       <r>   11.1253    0.0000 </r>
      </set>
      <set comment="kpoint 25">
       <r>  -11.6310    1.0000 </r>
       <r>  -11.6069    1.0000 </r>
       <r>  -11.6012    1.0000 </r>
       <r>  -11.5902    1.0000 </r>
       <r>  -11.5902    1.0000 </r>
       <r>   -5.8754    1.0000 </r>
       <r>   -1.8936    1.0000 </r>
       <r>    3.0053    1.0000 </r>
       <r>    3.0053    1.0000 </r>
       <r>    3.3898    1.0000 </r>
       <r>    7.9701    0.0000 </r>
       <r>    9.1385    0.0000 </r>
       <r>    9.5423    0.0000 </r>
       <r>    9.5423    0.0000 </r>
      </set>
      <set comment="kpoint 26">
       <r>  -11.6368    1.0000 </r>
       <r>  -11.6072    1.0000 </r>
       <r>  -11.6022    1.0000 </r>
       <r>  -11.5879    1.0000 </r>
       <r>  -11.5870    1.0000 </r>
       <r>   -5.6209    1.0000 </r>
       <r>   -2.1645    1.0000 </r>
       <r>    2.6446    1.0000 </r>
       <r>    2.8961    1.0000 </r>
       <r>    2.9552    1.0000 </r>
       <r>    8.7143    0.0000 </r>
       <r>    9.0089    0.0000 </r>
       <r>    9.4514    0.0000 </r>
       <r>    9.6000    0.0000 </r>
      </set>
      <set comment="kpoint 27">
       <r>  -11.6389    1.0000 </r>
       <r>  -11.6050    1.0000 </r>
       <r>  -11.6046    1.0000 </r>
       <r>  -11.5868    1.0000 </r>
       <r>  -11.5847    1.0000 </r>
       <r>   -5.3316    1.0000 </r>
       <r>   -2.5472    1.0000 </r>
       <r>    2.1075    1.0000 </r>
       <r>    2.9404    1.0000 </r>
       <r>    3.0666    1.0000 </r>
       <r>    8.6416    0.0000 </r>
       <r>    8.9744    0.0000 </r>
       <r>    9.4645    0.0000 </r>
       <r>    9.7986    0.0000 </r>
      </set>
      <set comment="kpoint 28">
       <r>  -11.6374    1.0000 </r>
       <r>  -11.6081    1.0000 </r>
       <r>  -11.6014    1.0000 </r>
       <r>  -11.5879    1.0000 </r>
       <r>  -11.5845    1.0000 </r>
       <r>   -5.1092    1.0000 </r>
       <r>   -2.8879    1.0000 </r>
       <r>    1.7978    1.0000 </r>
       <r>    3.1376    1.0000 </r>
       <r>    3.3320    1.0000 </r>
       <r>    8.1652    0.0000 </r>
       <r>    8.3590    0.0000 </r>
       <r>    9.8933    0.0000 </r>
       <r>   10.5029    0.0000 </r>
      </set>
      <set comment="kpoint 29">
       <r>  -11.6326    1.0000 </r>
       <r>  -11.6117    1.0000 </r>
       <r>  -11.5966    1.0000 </r>
       <r>  -11.5908    1.0000 </r>
       <r>  -11.5864    1.0000 </r>
       <r>   -5.0969    1.0000 </r>
       <r>   -3.0074    1.0000 </r>
       <r>    1.7585    1.0000 </r>
       <r>    3.4729    1.0000 </r>
       <r>    3.7236    1.0000 </r>
       <r>    7.5993    0.0000 </r>
       <r>    7.7133    0.0000 </r>
       <r>   10.0385    0.0000 </r>
       <r>   11.5918    0.0000 </r>
      </set>
      <set comment="kpoint 30">
       <r>  -11.6257    1.0000 </r>
       <r>  -11.6146    1.0000 </r>
       <r>  -11.5945    1.0000 </r>
       <r>  -11.5926    1.0000 </r>
       <r>  -11.5891    1.0000 </r>
       <r>   -5.3122    1.0000 </r>
       <r>   -2.8747    1.0000 </r>
       <r>    2.0145    1.0000 </r>
       <r>    3.9002    1.0000 </r>
       <r>    4.2199    1.0000 </r>
       <r>    6.9890    0.0000 </r>
       <r>    7.1068    0.0000 </r>
       <r>    9.8266    0.0000 </r>
       <r>   12.1774    0.0000 </r>
      </set>
      <set comment="kpoint 31">
       <r>  -11.6443    1.0000 </r>
       <r>  -11.6090    1.0000 </r>
       <r>  -11.5987    1.0000 </r>
       <r>  -11.5843    1.0000 </r>
       <r>  -11.5843    1.0000 </r>
       <r>   -5.4417    1.0000 </r>
       <r>   -2.1499    1.0000 </r>
       <r>    1.9397    1.0000 </r>
       <r>    2.6894    1.0000 </r>
       <r>    2.6894    1.0000 </r>
       <r>    8.7439    0.0000 </r>
       <r>    9.7656    0.0000 </r>
       <r>    9.9664    0.0000 </r>
       <r>    9.9664    0.0000 </r>
      </set>
      <set comment="kpoint 32">
       <r>  -11.6484    1.0000 </r>
       <r>  -11.6088    1.0000 </r>
       <r>  -11.5999    1.0000 </r>
       <r>  -11.5829    1.0000 </r>
       <r>  -11.5826    1.0000 </r>
       <r>   -5.2361    1.0000 </r>
       <r>   -2.3055    1.0000 </r>
       <r>    1.4335    1.0000 </r>
       <r>    2.6456    1.0000 </r>
       <r>    2.6802    1.0000 </r>
       <r>    8.7645    0.0000 </r>
       <r>    9.8544    0.0000 </r>
       <r>    9.8924    0.0000 </r>
       <r>   10.5335    0.0000 </r>
      </set>
      <set comment="kpoint 33">
       <r>  -11.6470    1.0000 </r>
       <r>  -11.6058    1.0000 </r>
       <r>  -11.6025    1.0000 </r>
       <r>  -11.5836    1.0000 </r>
       <r>  -11.5821    1.0000 </r>
       <r>   -5.0680    1.0000 </r>
       <r>   -2.5743    1.0000 </r>
       <r>    1.2127    1.0000 </r>
       <r>    2.7688    1.0000 </r>
       <r>    2.8762    1.0000 </r>
       <r>    8.8703    0.0000 </r>
       <r>    9.3001    0.0000 </r>
       <r>    9.7906    0.0000 </r>
       <r>   10.8649    0.0000 </r>
      </set>
      <set comment="kpoint 34">
       <r>  -11.6415    1.0000 </r>
       <r>  -11.6065    1.0000 </r>
       <r>  -11.6017    1.0000 </r>
       <r>  -11.5870    1.0000 </r>
       <r>  -11.5838    1.0000 </r>
       <r>   -5.0093    1.0000 </r>
       <r>   -2.8424    1.0000 </r>
       <r>    1.3207    1.0000 </r>
       <r>    3.0523    1.0000 </r>
       <r>    3.2337    1.0000 </r>
       <r>    8.3854    0.0000 </r>
       <r>    8.5410    0.0000 </r>
       <r>   10.4522    0.0000 </r>
       <r>   10.6878    0.0000 </r>
      </set>
      <set comment="kpoint 35">
       <r>  -11.6541    1.0000 </r>
       <r>  -11.6103    1.0000 </r>
       <r>  -11.5978    1.0000 </r>
       <r>  -11.5811    1.0000 </r>
       <r>  -11.5811    1.0000 </r>
       <r>   -5.1389    1.0000 </r>
       <r>   -2.2078    1.0000 </r>
       <r>    1.0223    1.0000 </r>
       <r>    2.5150    1.0000 </r>
       <r>    2.5150    1.0000 </r>
       <r>    8.5454    0.0000 </r>
       <r>   10.2793    0.0000 </r>
       <r>   10.2793    0.0000 </r>
       <r>   11.2202    0.0000 </r>
      </set>
      <set comment="kpoint 36">
       <r>  -11.6535    1.0000 </r>
       <r>  -11.6095    1.0000 </r>
       <r>  -11.5995    1.0000 </r>
       <r>  -11.5814    1.0000 </r>
       <r>  -11.5807    1.0000 </r>
       <r>   -5.0763    1.0000 </r>
       <r>   -2.3109    1.0000 </r>
       <r>    0.9415    1.0000 </r>
       <r>    2.5567    1.0000 </r>
       <r>    2.5891    1.0000 </r>
       <r>    8.6778    0.0000 </r>
       <r>   10.0327    0.0000 </r>
       <r>   10.0943    0.0000 </r>
       <r>   11.3580    0.0000 </r>
      </set>
      <set comment="kpoint 37">
       <r>  -11.6174    1.0000 </r>
       <r>  -11.6076    1.0000 </r>
       <r>  -11.6032    1.0000 </r>
       <r>  -11.5963    1.0000 </r>
       <r>  -11.5942    1.0000 </r>
       <r>   -6.1838    1.0000 </r>
       <r>   -1.6753    1.0000 </r>
       <r>    3.2349    1.0000 </r>
       <r>    3.8206    1.0000 </r>
       <r>    4.7295    1.0000 </r>
       <r>    6.6960    0.0000 </r>
       <r>    8.1105    0.0000 </r>
       <r>    9.1216    0.0000 </r>
       <r>   10.2338    0.0000 </r>
      </set>
      <set comment="kpoint 38">
       <r>  -11.6213    1.0000 </r>
       <r>  -11.6101    1.0000 </r>
       <r>  -11.6020    1.0000 </r>
       <r>  -11.5935    1.0000 </r>
       <r>  -11.5914    1.0000 </r>
       <r>   -5.8897    1.0000 </r>
       <r>   -2.1882    1.0000 </r>
       <r>    2.9776    1.0000 </r>
       <r>    3.9857    1.0000 </r>
       <r>    4.4431    1.0000 </r>
       <r>    6.7874    0.0000 </r>
       <r>    7.4373    0.0000 </r>
       <r>    9.0023    0.0000 </r>
       <r>   10.5037    0.0000 </r>
      </set>
      <set comment="kpoint 39">
       <r>  -11.6239    1.0000 </r>
       <r>  -11.6133    1.0000 </r>
       <r>  -11.5996    1.0000 </r>
       <r>  -11.5911    1.0000 </r>
       <r>  -11.5884    1.0000 </r>
       <r>   -5.5374    1.0000 </r>
       <r>   -2.7362    1.0000 </r>
       <r>    2.9025    1.0000 </r>
       <r>    3.7416    1.0000 </r>
       <r>    4.4383    1.0000 </r>
       <r>    6.6899    0.0000 </r>
       <r>    7.2904    0.0000 </r>
       <r>    8.6498    0.0000 </r>
       <r>   11.0580    0.0000 </r>
      </set>
      <set comment="kpoint 40">
       <r>  -11.6253    1.0000 </r>
       <r>  -11.6153    1.0000 </r>
       <r>  -11.5976    1.0000 </r>
       <r>  -11.5902    1.0000 </r>
       <r>  -11.5868    1.0000 </r>
       <r>   -5.2508    1.0000 </r>
       <r>   -3.1366    1.0000 </r>
       <r>    2.9907    1.0000 </r>
       <r>    3.3663    1.0000 </r>
       <r>    4.5926    1.0000 </r>
       <r>    6.3660    0.0000 </r>
       <r>    7.6219    0.0000 </r>
       <r>    8.2447    0.0000 </r>
       <r>   11.9396    0.0000 </r>
      </set>
      <set comment="kpoint 41">
       <r>  -11.6292    1.0000 </r>
       <r>  -11.6053    1.0000 </r>
       <r>  -11.6051    1.0000 </r>
       <r>  -11.5904    1.0000 </r>
       <r>  -11.5902    1.0000 </r>
       <r>   -5.8012    1.0000 </r>
       <r>   -2.1109    1.0000 </r>
       <r>    2.8394    1.0000 </r>
       <r>    3.3467    1.0000 </r>
       <r>    3.6035    1.0000 </r>
       <r>    7.7544    0.0000 </r>
       <r>    8.4888    0.0000 </r>
       <r>    9.2023    0.0000 </r>
       <r>    9.9390    0.0000 </r>
      </set>
      <set comment="kpoint 42">
       <r>  -11.6324    1.0000 </r>
       <r>  -11.6074    1.0000 </r>
       <r>  -11.6034    1.0000 </r>
       <r>  -11.5890    1.0000 </r>
       <r>  -11.5868    1.0000 </r>
       <r>   -5.4935    1.0000 </r>
       <r>   -2.5160    1.0000 </r>
       <r>    2.5921    1.0000 </r>
       <r>    2.8340    1.0000 </r>
       <r>    3.8004    1.0000 </r>
       <r>    7.7086    0.0000 </r>
       <r>    8.4952    0.0000 </r>
       <r>    9.2473    0.0000 </r>
       <r>   10.2414    0.0000 </r>
      </set>
      <set comment="kpoint 43">
       <r>  -11.6332    1.0000 </r>
       <r>  -11.6101    1.0000 </r>
       <r>  -11.6001    1.0000 </r>
       <r>  -11.5894    1.0000 </r>
       <r>  -11.5851    1.0000 </r>
       <r>   -5.2082    1.0000 </r>
       <r>   -2.8958    1.0000 </r>
       <r>    2.3541    1.0000 </r>
       <r>    2.6124    1.0000 </r>
       <r>    4.1397    1.0000 </r>
       <r>    7.1324    0.0000 </r>
       <r>    8.8426    0.0000 </r>
       <r>    9.1960    0.0000 </r>
       <r>   10.7901    0.0000 </r>
      </set>
      <set comment="kpoint 44">
       <r>  -11.6314    1.0000 </r>
       <r>  -11.6125    1.0000 </r>
       <r>  -11.5964    1.0000 </r>
       <r>  -11.5921    1.0000 </r>
       <r>  -11.5852    1.0000 </r>
       <r>   -5.1081    1.0000 </r>
       <r>   -3.0521    1.0000 </r>
       <r>    2.1385    1.0000 </r>
       <r>    2.7894    1.0000 </r>
       <r>    4.4738    1.0000 </r>
       <r>    6.6714    0.0000 </r>
       <r>    8.5353    0.0000 </r>
       <r>    9.4511    0.0000 </r>
       <r>   11.7290    0.0000 </r>
      </set>
      <set comment="kpoint 45">
       <r>  -11.6281    1.0000 </r>
       <r>  -11.6129    1.0000 </r>
       <r>  -11.5970    1.0000 </r>
       <r>  -11.5915    1.0000 </r>
       <r>  -11.5870    1.0000 </r>
       <r>   -5.2840    1.0000 </r>
       <r>   -2.8833    1.0000 </r>
       <r>    2.1614    1.0000 </r>
       <r>    3.1598    1.0000 </r>
       <r>    4.6566    1.0000 </r>
       <r>    6.4854    0.0000 </r>
       <r>    8.0208    0.0000 </r>
       <r>    9.5975    0.0000 </r>
       <r>   11.4535    0.0000 </r>
      </set>
      <set comment="kpoint 46">
       <r>  -11.6247    1.0000 </r>
       <r>  -11.6116    1.0000 </r>
       <r>  -11.6000    1.0000 </r>
       <r>  -11.5902    1.0000 </r>
       <r>  -11.5901    1.0000 </r>
       <r>   -5.5937    1.0000 </r>
       <r>   -2.5418    1.0000 </r>
       <r>    2.4474    1.0000 </r>
       <r>    3.6666    1.0000 </r>
       <r>    4.5301    1.0000 </r>
       <r>    6.7222    0.0000 </r>
       <r>    7.4634    0.0000 </r>
       <r>    9.4516    0.0000 </r>
       <r>   10.9403    0.0000 </r>
      </set>
      <set comment="kpoint 47">
       <r>  -11.6416    1.0000 </r>
       <r>  -11.6070    1.0000 </r>
       <r>  -11.6022    1.0000 </r>
       <r>  -11.5857    1.0000 </r>
       <r>  -11.5844    1.0000 </r>
       <r>   -5.3830    1.0000 </r>
       <r>   -2.3532    1.0000 </r>
       <r>    2.0246    1.0000 </r>
       <r>    2.5170    1.0000 </r>
       <r>    3.1748    1.0000 </r>
       <r>    8.8486    0.0000 </r>
       <r>    9.0150    0.0000 </r>
       <r>    9.6320    0.0000 </r>
       <r>   10.1688    0.0000 </r>
      </set>
      <set comment="kpoint 48">
       <r>  -11.6423    1.0000 </r>
       <r>  -11.6047    1.0000 </r>
       <r>  -11.6040    1.0000 </r>
       <r>  -11.5861    1.0000 </r>
       <r>  -11.5825    1.0000 </r>
       <r>   -5.1503    1.0000 </r>
       <r>   -2.6208    1.0000 </r>
       <r>    1.6162    1.0000 </r>
       <r>    2.3457    1.0000 </r>
       <r>    3.5462    1.0000 </r>
       <r>    8.1781    0.0000 </r>
       <r>    9.2787    0.0000 </r>
       <r>   10.1624    0.0000 </r>
       <r>   10.3697    0.0000 </r>
      </set>
      <set comment="kpoint 49">
       <r>  -11.6399    1.0000 </r>
       <r>  -11.6078    1.0000 </r>
       <r>  -11.6004    1.0000 </r>
       <r>  -11.5895    1.0000 </r>
       <r>  -11.5827    1.0000 </r>
       <r>   -5.0194    1.0000 </r>
       <r>   -2.8547    1.0000 </r>
       <r>    1.4868    1.0000 </r>
       <r>    2.4093    1.0000 </r>
       <r>    3.9835    1.0000 </r>
       <r>    7.4823    0.0000 </r>
       <r>    9.2763    0.0000 </r>
       <r>   10.4142    0.0000 </r>
       <r>   10.7148    0.0000 </r>
      </set>
      <set comment="kpoint 50">
       <r>  -11.6343    1.0000 </r>
       <r>  -11.6109    1.0000 </r>
       <r>  -11.5951    1.0000 </r>
       <r>  -11.5934    1.0000 </r>
       <r>  -11.5845    1.0000 </r>
       <r>   -5.0742    1.0000 </r>
       <r>   -2.9442    1.0000 </r>
       <r>    1.6704    1.0000 </r>
       <r>    2.6909    1.0000 </r>
       <r>    4.4199    1.0000 </r>
       <r>    6.8447    0.0000 </r>
       <r>    8.7529    0.0000 </r>
       <r>   10.1872    0.0000 </r>
       <r>   11.7193    0.0000 </r>
      </set>
      <set comment="kpoint 51">
       <r>  -11.6506    1.0000 </r>
       <r>  -11.6081    1.0000 </r>
       <r>  -11.6007    1.0000 </r>
       <r>  -11.5832    1.0000 </r>
       <r>  -11.5811    1.0000 </r>
       <r>   -5.0978    1.0000 </r>
       <r>   -2.3978    1.0000 </r>
       <r>    1.1176    1.0000 </r>
       <r>    2.3399    1.0000 </r>
       <r>    2.9981    1.0000 </r>
       <r>    8.8589    0.0000 </r>
       <r>    9.2310    0.0000 </r>
       <r>   10.4451    0.0000 </r>
       <r>   11.0365    0.0000 </r>
      </set>
      <set comment="kpoint 52">
       <r>  -11.6473    1.0000 </r>
       <r>  -11.6050    1.0000 </r>
       <r>  -11.6032    1.0000 </r>
       <r>  -11.5858    1.0000 </r>
       <r>  -11.5812    1.0000 </r>
       <r>   -5.0156    1.0000 </r>
       <r>   -2.6059    1.0000 </r>
       <r>    1.1316    1.0000 </r>
       <r>    2.2532    1.0000 </r>
       <r>    3.4586    1.0000 </r>
       <r>    8.3853    0.0000 </r>
       <r>    9.2590    0.0000 </r>
       <r>   10.4559    0.0000 </r>
       <r>   10.9957    0.0000 </r>
      </set>
      <set comment="kpoint 53">
       <r>  -11.6352    1.0000 </r>
       <r>  -11.6083    1.0000 </r>
       <r>  -11.6008    1.0000 </r>
       <r>  -11.5891    1.0000 </r>
       <r>  -11.5844    1.0000 </r>
       <r>   -5.2321    1.0000 </r>
       <r>   -2.7311    1.0000 </r>
       <r>    2.1130    1.0000 </r>
       <r>    2.2892    1.0000 </r>
       <r>    4.2808    1.0000 </r>
       <r>    7.1161    0.0000 </r>
       <r>    9.1939    0.0000 </r>
       <r>    9.6017    0.0000 </r>
       <r>   10.8707    0.0000 </r>
      </set>
      <set comment="kpoint 54">
       <r>  -11.6365    1.0000 </r>
       <r>  -11.6094    1.0000 </r>
       <r>  -11.5970    1.0000 </r>
       <r>  -11.5923    1.0000 </r>
       <r>  -11.5827    1.0000 </r>
       <r>   -5.0448    1.0000 </r>
       <r>   -2.8896    1.0000 </r>
       <r>    1.8853    1.0000 </r>
       <r>    1.9767    1.0000 </r>
       <r>    4.6442    1.0000 </r>
       <r>    6.6926    0.0000 </r>
       <r>    9.6714    0.0000 </r>
       <r>    9.8966    0.0000 </r>
       <r>   11.3584    0.0000 </r>
      </set>
      <set comment="kpoint 55">
       <r>  -11.6429    1.0000 </r>
       <r>  -11.6063    1.0000 </r>
       <r>  -11.6014    1.0000 </r>
       <r>  -11.5892    1.0000 </r>
       <r>  -11.5811    1.0000 </r>
       <r>   -5.0092    1.0000 </r>
       <r>   -2.7204    1.0000 </r>
       <r>    1.3928    1.0000 </r>
       <r>    1.9306    1.0000 </r>
       <r>    4.1380    1.0000 </r>
       <r>    7.4586    0.0000 </r>
       <r>    9.6066    0.0000 </r>
       <r>   10.5603    0.0000 </r>
       <r>   11.0005    0.0000 </r>
      </set>
      <set comment="kpoint 56">
       <r>  -11.6405    1.0000 </r>
       <r>  -11.6082    1.0000 </r>
       <r>  -11.5973    1.0000 </r>
       <r>  -11.5936    1.0000 </r>
       <r>  -11.5811    1.0000 </r>
       <r>   -4.9668    1.0000 </r>
       <r>   -2.8220    1.0000 </r>
       <r>    1.4839    1.0000 </r>
       <r>    1.8035    1.0000 </r>
       <r>    4.6198    1.0000 </r>
       <r>    6.8407    0.0000 </r>
       <r>    9.9413    0.0000 </r>
       <r>   10.3865    0.0000 </r>
       <r>   11.3759    0.0000 </r>
      </set>
     </set>
    </set>
   </array>
  </eigenvalues>
  <separator name="orbital magnetization" >
   <v name="MAGDIPOLOUT">      0.00000000      0.00000000      0.00000000</v>
  </separator>
  <dos>
   <i name="efermi">      5.20551128 </i>
   <total>
    <array>
     <dimension dim="1">gridpoints</dimension>
     <dimension dim="2">spin</dimension>
     <field>energy</field>
     <field>total</field>
     <field>integrated</field>
     <set>
      <set comment="spin 1">
       <r>   -12.8873     0.0000     0.0000 </r>
       <r>   -12.7969     0.0000     0.0000 </r>
       <r>   -12.7064     0.0000     0.0000 </r>
       <r>   -12.6160     0.0000     0.0000 </r>
       <r>   -12.5255     0.0000     0.0000 </r>
       <r>   -12.4351     0.0000     0.0000 </r>
       <r>   -12.3447     0.0000     0.0000 </r>
       <r>   -12.2542     0.0000     0.0000 </r>
       <r>   -12.1638     0.0000     0.0000 </r>
       <r>   -12.0734     0.0000     0.0000 </r>
       <r>   -11.9829     0.0000     0.0000 </r>
       <r>   -11.8925     0.0000     0.0000 </r>
       <r>   -11.8021     0.0000     0.0000 </r>
       <r>   -11.7116     0.3770     0.0341 </r>
       <r>   -11.6212    35.3807     3.2338 </r>
       <r>   -11.5308    71.6414     9.7127 </r>
       <r>   -11.4403     3.1759     9.9999 </r>
       <r>   -11.3499     0.0008    10.0000 </r>
       <r>   -11.2594     0.0000    10.0000 </r>
       <r>   -11.1690     0.0000    10.0000 </r>
       <r>   -11.0786     0.0000    10.0000 </r>
       <r>   -10.9881     0.0000    10.0000 </r>
       <r>   -10.8977     0.0000    10.0000 </r>
       <r>   -10.8073     0.0000    10.0000 </r>
       <r>   -10.7168     0.0000    10.0000 </r>
       <r>   -10.6264     0.0000    10.0000 </r>
       <r>   -10.5360     0.0000    10.0000 </r>
       <r>   -10.4455     0.0000    10.0000 </r>
       <r>   -10.3551     0.0000    10.0000 </r>
       <r>   -10.2647     0.0000    10.0000 </r>
       <r>   -10.1742     0.0000    10.0000 </r>
       <r>   -10.0838     0.0000    10.0000 </r>
       <r>    -9.9933     0.0000    10.0000 </r>
       <r>    -9.9029     0.0000    10.0000 </r>
       <r>    -9.8125     0.0000    10.0000 </r>
       <r>    -9.7220     0.0000    10.0000 </r>
       <r>    -9.6316     0.0000    10.0000 </r>
       <r>    -9.5412     0.0000    10.0000 </r>
       <r>    -9.4507     0.0000    10.0000 </r>
       <r>    -9.3603     0.0000    10.0000 </r>
       <r>    -9.2699     0.0000    10.0000 </r>
       <r>    -9.1794     0.0000    10.0000 </r>
       <r>    -9.0890     0.0000    10.0000 </r>
       <r>    -8.9986     0.0000    10.0000 </r>
       <r>    -8.9081     0.0000    10.0000 </r>
       <r>    -8.8177     0.0000    10.0000 </r>
       <r>    -8.7272     0.0000    10.0000 </r>
       <r>    -8.6368     0.0000    10.0000 </r>
       <r>    -8.5464     0.0000    10.0000 </r>
       <r>    -8.4559     0.0000    10.0000 </r>
       <r>    -8.3655     0.0000    10.0000 </r>
       <r>    -8.2751     0.0000    10.0000 </r>
       <r>    -8.1846     0.0000    10.0000 </r>
       <r>    -8.0942     0.0000    10.0000 </r>
       <r>    -8.0038     0.0000    10.0000 </r>
       <r>    -7.9133     0.0000    10.0000 </r>
       <r>    -7.8229     0.0000    10.0000 </r>
       <r>    -7.7325     0.0000    10.0000 </r>
       <r>    -7.6420     0.0000    10.0000 </r>
       <r>    -7.5516     0.0000    10.0000 </r>
       <r>    -7.4611     0.0000    10.0000 </r>
       <r>    -7.3707     0.0000    10.0000 </r>
       <r>    -7.2803     0.0000    10.0000 </r>
       <r>    -7.1898     0.0000    10.0000 </r>
       <r>    -7.0994     0.0000    10.0000 </r>
       <r>    -7.0090     0.0000    10.0000 </r>
       <r>    -6.9185     0.0000    10.0000 </r>
       <r>    -6.8281     0.0000    10.0000 </r>
       <r>    -6.7377     0.0000    10.0000 </r>
       <r>    -6.6472     0.0030    10.0003 </r>
       <r>    -6.5568     0.0810    10.0076 </r>
       <r>    -6.4664     0.2005    10.0257 </r>
       <r>    -6.3759     0.3713    10.0593 </r>
       <r>    -6.2855     0.3525    10.0912 </r>
       <r>    -6.1950     0.4619    10.1329 </r>
       <r>    -6.1046     0.6165    10.1887 </r>
       <r>    -6.0142     0.6185    10.2446 </r>
       <r>    -5.9237     0.4192    10.2825 </r>
       <r>    -5.8333     1.1449    10.3861 </r>
       <r>    -5.7429     0.7852    10.4571 </r>
       <r>    -5.6524     0.6669    10.5174 </r>
       <r>    -5.5620     1.2133    10.6271 </r>
       <r>    -5.4716     1.6099    10.7727 </r>
       <r>    -5.3811     1.1680    10.8784 </r>
       <r>    -5.2907     1.8314    11.0440 </r>
       <r>    -5.2003     2.9503    11.3108 </r>
       <r>    -5.1098     2.5547    11.5418 </r>
       <r>    -5.0194     3.4376    11.8527 </r>
       <r>    -4.9289     1.5575    11.9936 </r>
       <r>    -4.8385     0.0711    12.0000 </r>
       <r>    -4.7481     0.0001    12.0000 </r>
       <r>    -4.6576     0.0000    12.0000 </r>
       <r>    -4.5672     0.0000    12.0000 </r>
       <r>    -4.4768     0.0000    12.0000 </r>
       <r>    -4.3863     0.0000    12.0000 </r>
       <r>    -4.2959     0.0000    12.0000 </r>
       <r>    -4.2055     0.0000    12.0000 </r>
       <r>    -4.1150     0.0000    12.0000 </r>
       <r>    -4.0246     0.0000    12.0000 </r>
       <r>    -3.9342     0.0000    12.0000 </r>
       <r>    -3.8437     0.0000    12.0000 </r>
       <r>    -3.7533     0.0000    12.0000 </r>
       <r>    -3.6628     0.0000    12.0000 </r>
       <r>    -3.5724     0.0000    12.0000 </r>
       <r>    -3.4820     0.0000    12.0000 </r>
       <r>    -3.3915     0.0002    12.0000 </r>
       <r>    -3.3011     0.1075    12.0097 </r>
       <r>    -3.2107     0.4242    12.0481 </r>
       <r>    -3.1202     0.9631    12.1352 </r>
       <r>    -3.0298     1.5434    12.2748 </r>
       <r>    -2.9394     1.3686    12.3986 </r>
       <r>    -2.8489     3.4749    12.7128 </r>
       <r>    -2.7585     1.8418    12.8794 </r>
       <r>    -2.6681     1.3771    13.0039 </r>
       <r>    -2.5776     1.7547    13.1626 </r>
       <r>    -2.4872     1.9398    13.3380 </r>
       <r>    -2.3967     0.5239    13.3854 </r>
       <r>    -2.3063     1.3933    13.5114 </r>
       <r>    -2.2159     0.7477    13.5790 </r>
       <r>    -2.1254     1.3367    13.6999 </r>
       <r>    -2.0350     0.5319    13.7480 </r>
       <r>    -1.9446     0.0581    13.7533 </r>
       <r>    -1.8541     0.4395    13.7930 </r>
       <r>    -1.7637     0.4086    13.8300 </r>
       <r>    -1.6733     0.5623    13.8808 </r>
       <r>    -1.5828     0.2361    13.9022 </r>
       <r>    -1.4924     0.0143    13.9035 </r>
       <r>    -1.4020     0.1731    13.9191 </r>
       <r>    -1.3115     0.2637    13.9430 </r>
       <r>    -1.2211     0.2124    13.9622 </r>
       <r>    -1.1306     0.1573    13.9764 </r>
       <r>    -1.0402     0.0121    13.9775 </r>
       <r>    -0.9498     0.0529    13.9823 </r>
       <r>    -0.8593     0.1602    13.9968 </r>
       <r>    -0.7689     0.0194    13.9985 </r>
       <r>    -0.6785     0.0110    13.9995 </r>
       <r>    -0.5880     0.0053    14.0000 </r>
       <r>    -0.4976     0.0000    14.0000 </r>
       <r>    -0.4072     0.0000    14.0000 </r>
       <r>    -0.3167     0.0000    14.0000 </r>
       <r>    -0.2263     0.0000    14.0000 </r>
       <r>    -0.1359     0.0000    14.0000 </r>
       <r>    -0.0454     0.0000    14.0000 </r>
       <r>     0.0450     0.0000    14.0000 </r>
       <r>     0.1355     0.0000    14.0000 </r>
       <r>     0.2259     0.0000    14.0000 </r>
       <r>     0.3163     0.0000    14.0000 </r>
       <r>     0.4068     0.0000    14.0000 </r>
       <r>     0.4972     0.0000    14.0000 </r>
       <r>     0.5876     0.0000    14.0000 </r>
       <r>     0.6781     0.0000    14.0000 </r>
       <r>     0.7685     0.0000    14.0000 </r>
       <r>     0.8589     0.0020    14.0002 </r>
       <r>     0.9494     0.1174    14.0108 </r>
       <r>     1.0398     0.1557    14.0249 </r>
       <r>     1.1303     0.4760    14.0679 </r>
       <r>     1.2207     0.5779    14.1202 </r>
       <r>     1.3111     0.2481    14.1426 </r>
       <r>     1.4016     0.4371    14.1822 </r>
       <r>     1.4920     1.1385    14.2851 </r>
       <r>     1.5824     0.6702    14.3457 </r>
       <r>     1.6729     0.8335    14.4211 </r>
       <r>     1.7633     0.5649    14.4722 </r>
       <r>     1.8537     0.9603    14.5590 </r>
       <r>     1.9442     1.1246    14.6607 </r>
       <r>     2.0346     1.2283    14.7718 </r>
       <r>     2.1250     1.1671    14.8774 </r>
       <r>     2.2155     1.4655    15.0099 </r>
       <r>     2.3059     0.8837    15.0898 </r>
       <r>     2.3964     2.0489    15.2751 </r>
       <r>     2.4868     1.3587    15.3980 </r>
       <r>     2.5772     1.6269    15.5451 </r>
       <r>     2.6677     2.6347    15.7834 </r>
       <r>     2.7581     1.3124    15.9021 </r>
       <r>     2.8485     1.8656    16.0708 </r>
       <r>     2.9390     2.4758    16.2947 </r>
       <r>     3.0294     2.7410    16.5426 </r>
       <r>     3.1198     1.0137    16.6343 </r>
       <r>     3.2103     1.5160    16.7714 </r>
       <r>     3.3007     2.0793    16.9594 </r>
       <r>     3.3911     2.6179    17.1962 </r>
       <r>     3.4816     1.4041    17.3231 </r>
       <r>     3.5720     1.2307    17.4344 </r>
       <r>     3.6625     2.6977    17.6784 </r>
       <r>     3.7529     2.6261    17.9159 </r>
       <r>     3.8433     2.1379    18.1093 </r>
       <r>     3.9338     1.7518    18.2677 </r>
       <r>     4.0242     2.1684    18.4638 </r>
       <r>     4.1146     1.0501    18.5587 </r>
       <r>     4.2051     1.7320    18.7154 </r>
       <r>     4.2955     1.9833    18.8947 </r>
       <r>     4.3859     1.6122    19.0406 </r>
       <r>     4.4764     2.5405    19.2703 </r>
       <r>     4.5668     1.7360    19.4273 </r>
       <r>     4.6572     2.9384    19.6930 </r>
       <r>     4.7477     1.7894    19.8549 </r>
       <r>     4.8381     0.8850    19.9349 </r>
       <r>     4.9286     0.5456    19.9842 </r>
       <r>     5.0190     0.1602    19.9987 </r>
       <r>     5.1094     0.0140    20.0000 </r>
       <r>     5.1999     0.0000    20.0000 </r>
       <r>     5.2903     0.0000    20.0000 </r>
       <r>     5.3807     0.0000    20.0000 </r>
       <r>     5.4712     0.0000    20.0000 </r>
       <r>     5.5616     0.0000    20.0000 </r>
       <r>     5.6520     0.0000    20.0000 </r>
       <r>     5.7425     0.0000    20.0000 </r>
       <r>     5.8329     0.0018    20.0002 </r>
       <r>     5.9233     0.0828    20.0077 </r>
       <r>     6.0138     0.0481    20.0120 </r>
       <r>     6.1042     0.0526    20.0168 </r>
       <r>     6.1947     0.3202    20.0457 </r>
       <r>     6.2851     0.2797    20.0710 </r>
       <r>     6.3755     0.8904    20.1515 </r>
       <r>     6.4660     1.5742    20.2939 </r>
       <r>     6.5564     1.7685    20.4538 </r>
       <r>     6.6468     1.1254    20.5556 </r>
       <r>     6.7373     3.3250    20.8563 </r>
       <r>     6.8277     2.2727    21.0618 </r>
       <r>     6.9181     0.7871    21.1330 </r>
       <r>     7.0086     0.8289    21.2080 </r>
       <r>     7.0990     1.3682    21.3317 </r>
       <r>     7.1894     2.0302    21.5153 </r>
       <r>     7.2799     0.6762    21.5765 </r>
       <r>     7.3703     1.3483    21.6984 </r>
       <r>     7.4608     1.9084    21.8710 </r>
       <r>     7.5512     1.7381    22.0282 </r>
       <r>     7.6416     1.7045    22.1823 </r>
       <r>     7.7321     1.3300    22.3026 </r>
       <r>     7.8225     1.1033    22.4024 </r>
       <r>     7.9129     0.2954    22.4291 </r>
       <r>     8.0034     0.7701    22.4988 </r>
       <r>     8.0938     1.3954    22.6250 </r>
       <r>     8.1842     1.2382    22.7369 </r>
       <r>     8.2747     1.5404    22.8762 </r>
       <r>     8.3651     1.1680    22.9819 </r>
       <r>     8.4555     1.0620    23.0779 </r>
       <r>     8.5460     1.9409    23.2534 </r>
       <r>     8.6364     1.4908    23.3883 </r>
       <r>     8.7269     1.9448    23.5641 </r>
       <r>     8.8173     2.0256    23.7473 </r>
       <r>     8.9077     1.9008    23.9192 </r>
       <r>     8.9982     1.5931    24.0633 </r>
       <r>     9.0886     2.0276    24.2467 </r>
       <r>     9.1790     1.1489    24.3506 </r>
       <r>     9.2695     3.5461    24.6713 </r>
       <r>     9.3599     1.8050    24.8345 </r>
       <r>     9.4503     0.9463    24.9201 </r>
       <r>     9.5408     1.2493    25.0331 </r>
       <r>     9.6312     1.9391    25.2084 </r>
       <r>     9.7216     1.5892    25.3521 </r>
       <r>     9.8121     0.9535    25.4384 </r>
       <r>     9.9025     1.7468    25.5964 </r>
       <r>     9.9930     1.5902    25.7402 </r>
       <r>    10.0834     0.9846    25.8292 </r>
       <r>    10.1738     1.0948    25.9282 </r>
       <r>    10.2643     1.7801    26.0892 </r>
       <r>    10.3547     1.0782    26.1867 </r>
       <r>    10.4451     2.0147    26.3689 </r>
       <r>    10.5356     2.3037    26.5772 </r>
       <r>    10.6260     0.7983    26.6494 </r>
       <r>    10.7164     0.9144    26.7321 </r>
       <r>    10.8069     1.5284    26.8703 </r>
       <r>    10.8973     1.2895    26.9870 </r>
       <r>    10.9877     0.8581    27.0646 </r>
       <r>    11.0782     1.5592    27.2056 </r>
       <r>    11.1686     0.7232    27.2710 </r>
       <r>    11.2591     0.5023    27.3164 </r>
       <r>    11.3495     0.6069    27.3713 </r>
       <r>    11.4399     1.1592    27.4761 </r>
       <r>    11.5304     0.6790    27.5375 </r>
       <r>    11.6208     0.5762    27.5896 </r>
       <r>    11.7112     0.6980    27.6528 </r>
       <r>    11.8017     0.9601    27.7396 </r>
       <r>    11.8921     0.0953    27.7482 </r>
       <r>    11.9825     0.8998    27.8296 </r>
       <r>    12.0730     0.7098    27.8938 </r>
       <r>    12.1634     0.2275    27.9143 </r>
       <r>    12.2538     0.4031    27.9508 </r>
       <r>    12.3443     0.0123    27.9519 </r>
       <r>    12.4347     0.0000    27.9519 </r>
       <r>    12.5252     0.0000    27.9519 </r>
       <r>    12.6156     0.0000    27.9519 </r>
       <r>    12.7060     0.0000    27.9519 </r>
       <r>    12.7965     0.0185    27.9536 </r>
       <r>    12.8869     0.3044    27.9811 </r>
       <r>    12.9773     0.0992    27.9901 </r>
       <r>    13.0678     0.1027    27.9994 </r>
       <r>    13.1582     0.0069    28.0000 </r>
       <r>    13.2486     0.0000    28.0000 </r>
       <r>    13.3391     0.0000    28.0000 </r>
       <r>    13.4295     0.0000    28.0000 </r>
       <r>    13.5199     0.0000    28.0000 </r>
       <r>    13.6104     0.0000    28.0000 </r>
       <r>    13.7008     0.0000    28.0000 </r>
       <r>    13.7913     0.0000    28.0000 </r>
       <r>    13.8817     0.0000    28.0000 </r>
       <r>    13.9721     0.0000    28.0000 </r>
       <r>    14.0626     0.0000    28.0000 </r>
       <r>    14.1530     0.0000    28.0000 </r>
       <r>    14.2434     0.0000    28.0000 </r>
      </set>
     </set>
    </array>
   </total>
   <partial>
    <array>
     <dimension dim="1">gridpoints</dimension>
     <dimension dim="2">spin</dimension>
     <dimension dim="3">ion</dimension>
     <field>energy</field>
     <field>    s</field>
     <field>   py</field>
     <field>   pz</field>
     <field>   px</field>
     <field>  dxy</field>
     <field>  dyz</field>
     <field>  dz2</field>
     <field>  dxz</field>
     <field>x2-y2</field>
     <set>
      <set comment="ion 1">
       <set comment="spin 1">
        <r>   -12.8873     0.0000     0.0000     0.0000     0.0000     0.0000     0.0000     0.0000     0.0000     0.0000 </r>
        <r>   -12.7969     0.0000     0.0000     0.0000     0.0000     0.0000     0.0000     0.0000     0.0000     0.0000 </r>
        <r>   -12.7064     0.0000     0.0000     0.0000     0.0000     0.0000     0.0000     0.0000     0.0000     0.0000 </r>
        <r>   -12.6160     0.0000     0.0000     0.0000     0.0000     0.0000     0.0000     0.0000     0.0000     0.0000 </r>
        <r>   -12.5255     0.0000     0.0000     0.0000     0.0000     0.0000     0.0000     0.0000     0.0000     0.0000 </r>
        <r>   -12.4351     0.0000     0.0000     0.0000     0.0000     0.0000     0.0000     0.0000     0.0000     0.0000 </r>
        <r>   -12.3447     0.0000     0.0000     0.0000     0.0000     0.0000     0.0000     0.0000     0.0000     0.0000 </r>
        <r>   -12.2542     0.0000     0.0000     0.0000     0.0000     0.0000     0.0000     0.0000     0.0000     0.0000 </r>
        <r>   -12.1638     0.0000     0.0000     0.0000     0.0000     0.0000     0.0000     0.0000     0.0000     0.0000 </r>
        <r>   -12.0734     0.0000     0.0000     0.0000     0.0000     0.0000     0.0000     0.0000     0.0000     0.0000 </r>
        <r>   -11.9829     0.0000     0.0000     0.0000     0.0000     0.0000     0.0000     0.0000     0.0000     0.0000 </r>
        <r>   -11.8925     0.0000     0.0000     0.0000     0.0000     0.0000     0.0000     0.0000     0.0000     0.0000 </r>
        <r>   -11.8021     0.0000     0.0000     0.0000     0.0000     0.0000     0.0000     0.0000     0.0000     0.0000 </r>
        <r>   -11.7116     0.0010     0.0000     0.0001     0.0000     0.0000     0.0000     0.0000     0.0000     0.0000 </r>
        <r>   -11.6212     0.0311     0.0034     0.0033     0.0023     0.0001     0.0000     0.0004     0.0000     0.0007 </r>
        <r>   -11.5308     0.0164     0.0048     0.0029     0.0029     0.0003     0.0001     0.0004     0.0001     0.0012 </r>
        <r>   -11.4403     0.0001     0.0001     0.0000     0.0001     0.0000     0.0000     0.0000     0.0000     0.0000 </r>
        <r>   -11.3499     0.0000     0.0000     0.0000     0.0000     0.0000     0.0000     0.0000     0.0000     0.0000 </r>
        <r>   -11.2594     0.0000     0.0000     0.0000     0.0000     0.0000     0.0000     0.0000     0.0000     0.0000 </r>
        <r>   -11.1690     0.0000     0.0000     0.0000     0.0000     0.0000     0.0000     0.0000     0.0000     0.0000 </r>
        <r>   -11.0786     0.0000     0.0000     0.0000     0.0000     0.0000     0.0000     0.0000     0.0000     0.0000 </r>
        <r>   -10.9881     0.0000     0.0000     0.0000     0.0000     0.0000     0.0000     0.0000     0.0000     0.0000 </r>
        <r>   -10.8977     0.0000     0.0000     0.0000     0.0000     0.0000     0.0000     0.0000     0.0000     0.0000 </r>
        <r>   -10.8073     0.0000     0.0000     0.0000     0.0000     0.0000     0.0000     0.0000     0.0000     0.0000 </r>
        <r>   -10.7168     0.0000     0.0000     0.0000     0.0000     0.0000     0.0000     0.0000     0.0000     0.0000 </r>
        <r>   -10.6264     0.0000     0.0000     0.0000     0.0000     0.0000     0.0000     0.0000     0.0000     0.0000 </r>
        <r>   -10.5360     0.0000     0.0000     0.0000     0.0000     0.0000     0.0000     0.0000     0.0000     0.0000 </r>
        <r>   -10.4455     0.0000     0.0000     0.0000     0.0000     0.0000     0.0000     0.0000     0.0000     0.0000 </r>
        <r>   -10.3551     0.0000     0.0000     0.0000     0.0000     0.0000     0.0000     0.0000     0.0000     0.0000 </r>
        <r>   -10.2647     0.0000     0.0000     0.0000     0.0000     0.0000     0.0000     0.0000     0.0000     0.0000 </r>
        <r>   -10.1742     0.0000     0.0000     0.0000     0.0000     0.0000     0.0000     0.0000     0.0000     0.0000 </r>
        <r>   -10.0838     0.0000     0.0000     0.0000     0.0000     0.0000     0.0000     0.0000     0.0000     0.0000 </r>
        <r>    -9.9933     0.0000     0.0000     0.0000     0.0000     0.0000     0.0000     0.0000     0.0000     0.0000 </r>
        <r>    -9.9029     0.0000     0.0000     0.0000     0.0000     0.0000     0.0000     0.0000     0.0000     0.0000 </r>
        <r>    -9.8125     0.0000     0.0000     0.0000     0.0000     0.0000     0.0000     0.0000     0.0000     0.0000 </r>
        <r>    -9.7220     0.0000     0.0000     0.0000     0.0000     0.0000     0.0000     0.0000     0.0000     0.0000 </r>
        <r>    -9.6316     0.0000     0.0000     0.0000     0.0000     0.0000     0.0000     0.0000     0.0000     0.0000 </r>
        <r>    -9.5412     0.0000     0.0000     0.0000     0.0000     0.0000     0.0000     0.0000     0.0000     0.0000 </r>
        <r>    -9.4507     0.0000     0.0000     0.0000     0.0000     0.0000     0.0000     0.0000     0.0000     0.0000 </r>
        <r>    -9.3603     0.0000     0.0000     0.0000     0.0000     0.0000     0.0000     0.0000     0.0000     0.0000 </r>
        <r>    -9.2699     0.0000     0.0000     0.0000     0.0000     0.0000     0.0000     0.0000     0.0000     0.0000 </r>
        <r>    -9.1794     0.0000     0.0000     0.0000     0.0000     0.0000     0.0000     0.0000     0.0000     0.0000 </r>
        <r>    -9.0890     0.0000     0.0000     0.0000     0.0000     0.0000     0.0000     0.0000     0.0000     0.0000 </r>
        <r>    -8.9986     0.0000     0.0000     0.0000     0.0000     0.0000     0.0000     0.0000     0.0000     0.0000 </r>
        <r>    -8.9081     0.0000     0.0000     0.0000     0.0000     0.0000     0.0000     0.0000     0.0000     0.0000 </r>
        <r>    -8.8177     0.0000     0.0000     0.0000     0.0000     0.0000     0.0000     0.0000     0.0000     0.0000 </r>
        <r>    -8.7272     0.0000     0.0000     0.0000     0.0000     0.0000     0.0000     0.0000     0.0000     0.0000 </r>
[...]
        <r>  0.0061  0.0096  0.0000  0.0039  0.0643  0.0000  0.0047  0.0000  0.0005 </r>
        <r>  0.0012  0.0223  0.0000  0.0650  0.0459  0.0000  0.0001  0.0000  0.0003 </r>
       </set>
      </set>
      <set comment="kpoint 51">
       <set comment="band 1">
        <r>  0.0051  0.0000  0.0000  0.0000  0.0000  0.0000  0.0000  0.0000  0.0000 </r>
        <r>  0.0000  0.0000  0.0000  0.0000  0.0000  0.0002  0.9625  0.0000  0.0021 </r>
       </set>
       <set comment="band 2">
        <r>  0.0000  0.0000  0.0000  0.0000  0.0000  0.0000  0.0000  0.0000  0.0000 </r>
        <r>  0.0000  0.0000  0.0000  0.0000  0.9757  0.0000  0.0000  0.0001  0.0000 </r>
       </set>
       <set comment="band 3">
        <r>  0.0000  0.0001  0.0000  0.0000  0.0000  0.0000  0.0000  0.0000  0.0002 </r>
        <r>  0.0000  0.0000  0.0000  0.0000  0.0000  0.0030  0.0022  0.0000  0.9714 </r>
       </set>
       <set comment="band 4">
        <r>  0.0000  0.0000  0.0000  0.0000  0.0000  0.0000  0.0000  0.0000  0.0000 </r>
        <r>  0.0000  0.0000  0.0000  0.0000  0.0000  0.9757  0.0002  0.0000  0.0031 </r>
       </set>
       <set comment="band 5">
        <r>  0.0000  0.0000  0.0000  0.0000  0.0000  0.0000  0.0000  0.0000  0.0000 </r>
        <r>  0.0000  0.0000  0.0000  0.0000  0.0001  0.0000  0.0000  0.9791  0.0000 </r>
       </set>
       <set comment="band 6">
        <r>  0.6120  0.0001  0.0003  0.0000  0.0000  0.0000  0.0003  0.0000  0.0000 </r>
        <r>  0.0550  0.0015  0.0007  0.0000  0.0000  0.0000  0.0163  0.0000  0.0001 </r>
       </set>
       <set comment="band 7">
        <r>  0.0756  0.0075  0.0021  0.0000  0.0000  0.0000  0.0035  0.0000  0.0000 </r>
        <r>  0.6340  0.0012  0.0001  0.0000  0.0000  0.0000  0.0011  0.0000  0.0001 </r>
       </set>
       <set comment="band 8">
        <r>  0.0012  0.0003  0.2263  0.0000  0.0000  0.0002  0.0004  0.0000  0.0000 </r>
        <r>  0.0064  0.0000  0.1241  0.0000  0.0000  0.0004  0.0007  0.0000  0.0000 </r>
       </set>
       <set comment="band 9">
        <r>  0.0000  0.0000  0.0000  0.2888  0.0004  0.0000  0.0000  0.0000  0.0000 </r>
        <r>  0.0000  0.0000  0.0000  0.1260  0.0009  0.0000  0.0000  0.0001  0.0000 </r>
       </set>
       <set comment="band 10">
        <r>  0.0062  0.3078  0.0000  0.0000  0.0000  0.0000  0.0008  0.0000  0.0004 </r>
        <r>  0.0210  0.1168  0.0001  0.0000  0.0000  0.0001  0.0010  0.0000  0.0016 </r>
       </set>
       <set comment="band 11">
        <r>  0.0000  0.0000  0.0000  0.0387  0.0640  0.0000  0.0000  0.0000  0.0000 </r>
        <r>  0.0000  0.0000  0.0000  0.0040  0.0489  0.0000  0.0000  0.0000  0.0000 </r>
       </set>
       <set comment="band 12">
        <r>  0.0146  0.1951  0.0011  0.0000  0.0000  0.0008  0.0017  0.0000  0.0115 </r>
        <r>  0.0105  0.3252  0.0001  0.0000  0.0000  0.0001  0.0010  0.0000  0.0058 </r>
       </set>
       <set comment="band 13">
        <r>  0.0000  0.0000  0.0000  0.2315  0.0018  0.0000  0.0000  0.0009  0.0000 </r>
        <r>  0.0000  0.0000  0.0000  0.3647  0.0056  0.0000  0.0000  0.0000  0.0000 </r>
       </set>
       <set comment="band 14">
        <r>  0.0040  0.0008  0.3760  0.0000  0.0000  0.0053  0.0036  0.0000  0.0002 </r>
        <r>  0.0036  0.0022  0.2604  0.0000  0.0000  0.0000  0.0021  0.0000  0.0001 </r>
       </set>
      </set>
      <set comment="kpoint 52">
       <set comment="band 1">
        <r>  0.0048  0.0001  0.0000  0.0000  0.0000  0.0000  0.0000  0.0000  0.0000 </r>
        <r>  0.0000  0.0000  0.0000  0.0000  0.0020  0.0000  0.9523  0.0000  0.0113 </r>
       </set>
       <set comment="band 2">
        <r>  0.0000  0.0000  0.0000  0.0000  0.0000  0.0000  0.0000  0.0000  0.0000 </r>
        <r>  0.0000  0.0000  0.0000  0.0000  0.9202  0.0000  0.0003  0.0000  0.0556 </r>
       </set>
       <set comment="band 3">
        <r>  0.0000  0.0002  0.0000  0.0000  0.0000  0.0000  0.0000  0.0000  0.0001 </r>
        <r>  0.0000  0.0000  0.0000  0.0000  0.0540  0.0000  0.0131  0.0000  0.9092 </r>
       </set>
       <set comment="band 4">
        <r>  0.0000  0.0000  0.0000  0.0000  0.0000  0.0000  0.0000  0.0000  0.0000 </r>
        <r>  0.0000  0.0000  0.0000  0.0000  0.0000  0.9601  0.0000  0.0186  0.0000 </r>
       </set>
       <set comment="band 5">
        <r>  0.0000  0.0000  0.0000  0.0000  0.0000  0.0000  0.0000  0.0000  0.0000 </r>
        <r>  0.0000  0.0000  0.0000  0.0000  0.0000  0.0186  0.0000  0.9606  0.0000 </r>
       </set>
       <set comment="band 6">
        <r>  0.6434  0.0001  0.0000  0.0000  0.0000  0.0000  0.0002  0.0000  0.0000 </r>
        <r>  0.0296  0.0033  0.0000  0.0005  0.0000  0.0000  0.0157  0.0000  0.0003 </r>
       </set>
       <set comment="band 7">
        <r>  0.0375  0.0127  0.0000  0.0021  0.0000  0.0000  0.0032  0.0000  0.0001 </r>
        <r>  0.6469  0.0012  0.0000  0.0003  0.0000  0.0000  0.0003  0.0000  0.0001 </r>
       </set>
       <set comment="band 8">
        <r>  0.0000  0.0000  0.2313  0.0000  0.0000  0.0003  0.0000  0.0000  0.0000 </r>
        <r>  0.0000  0.0000  0.1251  0.0000  0.0000  0.0009  0.0000  0.0001  0.0000 </r>
       </set>
       <set comment="band 9">
        <r>  0.0016  0.0008  0.0000  0.2759  0.0007  0.0000  0.0002  0.0000  0.0002 </r>
        <r>  0.0048  0.0001  0.0000  0.1236  0.0016  0.0000  0.0002  0.0000  0.0005 </r>
       </set>
       <set comment="band 10">
        <r>  0.0095  0.3177  0.0000  0.0000  0.0001  0.0000  0.0014  0.0000  0.0007 </r>
        <r>  0.0373  0.1031  0.0000  0.0001  0.0003  0.0000  0.0020  0.0000  0.0035 </r>
       </set>
       <set comment="band 11">
        <r>  0.0227  0.1622  0.0000  0.0014  0.0028  0.0000  0.0023  0.0000  0.0141 </r>
        <r>  0.0154  0.3030  0.0000  0.0000  0.0007  0.0000  0.0010  0.0000  0.0062 </r>
       </set>
       <set comment="band 12">
        <r>  0.0000  0.0006  0.0000  0.1086  0.0554  0.0000  0.0000  0.0000  0.0024 </r>
        <r>  0.0002  0.0170  0.0000  0.0306  0.0347  0.0000  0.0001  0.0000  0.0011 </r>
       </set>
       <set comment="band 13">
        <r>  0.0056  0.0000  0.0000  0.1596  0.0092  0.0000  0.0010  0.0000  0.0033 </r>
        <r>  0.0040  0.0012  0.0000  0.3257  0.0173  0.0000  0.0004  0.0000  0.0017 </r>
       </set>
       <set comment="band 14">
        <r>  0.0000  0.0000  0.3730  0.0000  0.0000  0.0135  0.0000  0.0012  0.0000 </r>
        <r>  0.0000  0.0000  0.2292  0.0000  0.0000  0.0005  0.0000  0.0000  0.0000 </r>
       </set>
      </set>
      <set comment="kpoint 53">
       <set comment="band 1">
        <r>  0.0030  0.0000  0.0003  0.0000  0.0000  0.0000  0.0000  0.0000  0.0000 </r>
        <r>  0.0000  0.0000  0.0000  0.0000  0.0000  0.0086  0.9015  0.0000  0.0589 </r>
       </set>
       <set comment="band 2">
        <r>  0.0000  0.0005  0.0000  0.0000  0.0000  0.0000  0.0000  0.0000  0.0001 </r>
        <r>  0.0000  0.0000  0.0000  0.0000  0.0000  0.0486  0.0670  0.0000  0.8600 </r>
       </set>
       <set comment="band 3">
        <r>  0.0000  0.0000  0.0000  0.0000  0.0000  0.0000  0.0000  0.0000  0.0000 </r>
        <r>  0.0000  0.0000  0.0000  0.0000  0.9629  0.0000  0.0000  0.0139  0.0000 </r>
       </set>
       <set comment="band 4">
        <r>  0.0000  0.0000  0.0000  0.0000  0.0000  0.0000  0.0000  0.0000  0.0000 </r>
        <r>  0.0000  0.0000  0.0000  0.0000  0.0000  0.9209  0.0011  0.0000  0.0563 </r>
       </set>
       <set comment="band 5">
        <r>  0.0000  0.0000  0.0000  0.0000  0.0000  0.0000  0.0000  0.0000  0.0000 </r>
        <r>  0.0000  0.0000  0.0000  0.0000  0.0139  0.0000  0.0000  0.9650  0.0000 </r>
       </set>
       <set comment="band 6">
        <r>  0.6037  0.0004  0.0013  0.0000  0.0000  0.0000  0.0001  0.0000  0.0000 </r>
        <r>  0.0457  0.0044  0.0040  0.0000  0.0000  0.0000  0.0082  0.0000  0.0010 </r>
       </set>
       <set comment="band 7">
        <r>  0.0659  0.0153  0.0106  0.0000  0.0000  0.0000  0.0016  0.0000  0.0003 </r>
        <r>  0.5945  0.0013  0.0000  0.0000  0.0000  0.0002  0.0007  0.0000  0.0005 </r>
       </set>
       <set comment="band 8">
        <r>  0.0000  0.0000  0.0000  0.2712  0.0008  0.0000  0.0000  0.0003  0.0000 </r>
        <r>  0.0000  0.0000  0.0000  0.1238  0.0020  0.0000  0.0000  0.0009  0.0000 </r>
       </set>
       <set comment="band 9">
        <r>  0.0083  0.0043  0.2423  0.0000  0.0000  0.0006  0.0023  0.0000  0.0000 </r>
        <r>  0.0285  0.0001  0.1133  0.0000  0.0000  0.0011  0.0054  0.0000  0.0000 </r>
       </set>
       <set comment="band 10">
        <r>  0.0061  0.3808  0.0001  0.0000  0.0000  0.0001  0.0017  0.0000  0.0004 </r>
        <r>  0.0588  0.0582  0.0018  0.0000  0.0000  0.0012  0.0027  0.0000  0.0069 </r>
       </set>
       <set comment="band 11">
        <r>  0.0363  0.0686  0.0040  0.0000  0.0000  0.0037  0.0030  0.0000  0.0148 </r>
        <r>  0.0083  0.3278  0.0001  0.0000  0.0000  0.0004  0.0008  0.0000  0.0041 </r>
       </set>
       <set comment="band 12">
        <r>  0.0173  0.0014  0.2574  0.0000  0.0000  0.0055  0.0156  0.0000  0.0009 </r>
        <r>  0.0204  0.0081  0.2580  0.0000  0.0000  0.0002  0.0066  0.0000  0.0001 </r>
       </set>
       <set comment="band 13">
        <r>  0.0000  0.0000  0.0000  0.2030  0.0444  0.0000  0.0000  0.0025  0.0000 </r>
        <r>  0.0000  0.0000  0.0000  0.0880  0.0182  0.0000  0.0000  0.0000  0.0000 </r>
       </set>
       <set comment="band 14">
        <r>  0.0000  0.0000  0.0000  0.0824  0.0259  0.0000  0.0000  0.0042  0.0000 </r>
        <r>  0.0000  0.0000  0.0000  0.2664  0.0327  0.0000  0.0000  0.0001  0.0000 </r>
       </set>
      </set>
      <set comment="kpoint 54">
       <set comment="band 1">
        <r>  0.0035  0.0000  0.0001  0.0000  0.0000  0.0000  0.0000  0.0000  0.0000 </r>
        <r>  0.0000  0.0000  0.0000  0.0000  0.0024  0.0068  0.7925  0.0000  0.1667 </r>
       </set>
       <set comment="band 2">
        <r>  0.0000  0.0006  0.0000  0.0000  0.0000  0.0000  0.0000  0.0000  0.0000 </r>
        <r>  0.0000  0.0000  0.0000  0.0000  0.0075  0.0240  0.1703  0.0012  0.7724 </r>
       </set>
       <set comment="band 3">
        <r>  0.0000  0.0000  0.0000  0.0000  0.0000  0.0000  0.0000  0.0000  0.0000 </r>
        <r>  0.0000  0.0000  0.0000  0.0000  0.9372  0.0157  0.0059  0.0125  0.0059 </r>
       </set>
       <set comment="band 4">
        <r>  0.0000  0.0000  0.0000  0.0000  0.0000  0.0000  0.0000  0.0000  0.0000 </r>
        <r>  0.0000  0.0000  0.0000  0.0000  0.0207  0.9254  0.0005  0.0048  0.0265 </r>
       </set>
       <set comment="band 5">
        <r>  0.0000  0.0000  0.0000  0.0000  0.0000  0.0000  0.0000  0.0000  0.0000 </r>
        <r>  0.0000  0.0000  0.0000  0.0000  0.0094  0.0060  0.0005  0.9605  0.0026 </r>
       </set>
       <set comment="band 6">
        <r>  0.6591  0.0001  0.0004  0.0000  0.0000  0.0000  0.0000  0.0000  0.0000 </r>
        <r>  0.0069  0.0060  0.0022  0.0005  0.0000  0.0000  0.0093  0.0000  0.0023 </r>
       </set>
       <set comment="band 7">
        <r>  0.0098  0.0175  0.0063  0.0019  0.0000  0.0000  0.0018  0.0000  0.0005 </r>
        <r>  0.6374  0.0002  0.0002  0.0002  0.0000  0.0001  0.0000  0.0000  0.0003 </r>
       </set>
       <set comment="band 8">
        <r>  0.0041  0.0000  0.0331  0.2243  0.0007  0.0001  0.0000  0.0002  0.0001 </r>
        <r>  0.0003  0.0000  0.0147  0.1066  0.0018  0.0002  0.0009  0.0002  0.0005 </r>
       </set>
       <set comment="band 9">
        <r>  0.0028  0.0025  0.2122  0.0312  0.0001  0.0007  0.0013  0.0000  0.0001 </r>
        <r>  0.0204  0.0000  0.1045  0.0163  0.0002  0.0014  0.0019  0.0003  0.0001 </r>
       </set>
       <set comment="band 10">
        <r>  0.0013  0.4372  0.0000  0.0000  0.0000  0.0000  0.0012  0.0000  0.0000 </r>
        <r>  0.0718  0.0109  0.0006  0.0001  0.0003  0.0007  0.0039  0.0000  0.0105 </r>
       </set>
       <set comment="band 11">
        <r>  0.0438  0.0125  0.0013  0.0002  0.0006  0.0020  0.0045  0.0000  0.0160 </r>
        <r>  0.0018  0.3772  0.0000  0.0001  0.0000  0.0002  0.0000  0.0000  0.0011 </r>
       </set>
       <set comment="band 12">
        <r>  0.0106  0.0003  0.2329  0.0475  0.0043  0.0101  0.0074  0.0017  0.0022 </r>
        <r>  0.0058  0.0073  0.1864  0.0256  0.0009  0.0002  0.0057  0.0000  0.0004 </r>
       </set>
       <set comment="band 13">
        <r>  0.0000  0.0009  0.0503  0.2187  0.0266  0.0029  0.0030  0.0009  0.0015 </r>
        <r>  0.0097  0.0003  0.0437  0.1248  0.0061  0.0001  0.0001  0.0001  0.0009 </r>
       </set>
       <set comment="band 14">
        <r>  0.0025  0.0018  0.0000  0.0276  0.0414  0.0002  0.0019  0.0013  0.0020 </r>
        <r>  0.0023  0.0012  0.0019  0.1970  0.0414  0.0002  0.0001  0.0001  0.0010 </r>
       </set>
      </set>
      <set comment="kpoint 55">
       <set comment="band 1">
        <r>  0.0044  0.0000  0.0000  0.0000  0.0000  0.0000  0.0000  0.0000  0.0000 </r>
        <r>  0.0000  0.0000  0.0000  0.0000  0.0000  0.0007  0.9100  0.0000  0.0559 </r>
       </set>
       <set comment="band 2">
        <r>  0.0000  0.0004  0.0000  0.0000  0.0000  0.0000  0.0000  0.0000  0.0001 </r>
        <r>  0.0000  0.0000  0.0000  0.0000  0.0000  0.0083  0.0572  0.0000  0.9102 </r>
       </set>
       <set comment="band 3">
        <r>  0.0000  0.0000  0.0000  0.0000  0.0000  0.0000  0.0000  0.0000  0.0000 </r>
        <r>  0.0000  0.0000  0.0000  0.0000  0.9760  0.0000  0.0000  0.0007  0.0000 </r>
       </set>
       <set comment="band 4">
        <r>  0.0000  0.0000  0.0000  0.0000  0.0000  0.0000  0.0000  0.0000  0.0000 </r>
        <r>  0.0000  0.0000  0.0000  0.0000  0.0000  0.9692  0.0000  0.0000  0.0090 </r>
       </set>
       <set comment="band 5">
        <r>  0.0000  0.0000  0.0000  0.0000  0.0000  0.0000  0.0000  0.0000  0.0000 </r>
        <r>  0.0000  0.0000  0.0000  0.0000  0.0007  0.0000  0.0000  0.9785  0.0000 </r>
       </set>
       <set comment="band 6">
        <r>  0.6536  0.0001  0.0002  0.0000  0.0000  0.0000  0.0001  0.0000  0.0000 </r>
        <r>  0.0179  0.0049  0.0007  0.0000  0.0000  0.0000  0.0134  0.0000  0.0012 </r>
       </set>
       <set comment="band 7">
        <r>  0.0235  0.0164  0.0019  0.0000  0.0000  0.0000  0.0027  0.0000  0.0003 </r>
        <r>  0.6481  0.0008  0.0001  0.0000  0.0000  0.0000  0.0001  0.0000  0.0004 </r>
       </set>
       <set comment="band 8">
        <r>  0.0015  0.0004  0.2355  0.0000  0.0000  0.0006  0.0003  0.0000  0.0000 </r>
        <r>  0.0053  0.0000  0.1237  0.0000  0.0000  0.0014  0.0007  0.0000  0.0000 </r>
       </set>
       <set comment="band 9">
        <r>  0.0000  0.0000  0.0000  0.2639  0.0008  0.0000  0.0000  0.0000  0.0000 </r>
        <r>  0.0000  0.0000  0.0000  0.1251  0.0020  0.0000  0.0000  0.0001  0.0000 </r>
       </set>
       <set comment="band 10">
        <r>  0.0082  0.3642  0.0000  0.0000  0.0000  0.0000  0.0018  0.0000  0.0007 </r>
        <r>  0.0535  0.0713  0.0002  0.0000  0.0000  0.0001  0.0031  0.0000  0.0064 </r>
       </set>
       <set comment="band 11">
        <r>  0.0330  0.0984  0.0006  0.0000  0.0000  0.0006  0.0031  0.0000  0.0162 </r>
        <r>  0.0122  0.3359  0.0000  0.0000  0.0000  0.0001  0.0005  0.0000  0.0050 </r>
       </set>
       <set comment="band 12">
        <r>  0.0000  0.0000  0.0000  0.1582  0.0561  0.0000  0.0000  0.0002  0.0000 </r>
        <r>  0.0000  0.0000  0.0000  0.0421  0.0280  0.0000  0.0000  0.0000  0.0000 </r>
       </set>
       <set comment="band 13">
        <r>  0.0028  0.0005  0.3371  0.0000  0.0000  0.0183  0.0034  0.0000  0.0003 </r>
        <r>  0.0038  0.0022  0.2132  0.0000  0.0000  0.0011  0.0019  0.0000  0.0000 </r>
       </set>
       <set comment="band 14">
        <r>  0.0000  0.0000  0.0000  0.1462  0.0136  0.0000  0.0000  0.0008  0.0000 </r>
        <r>  0.0000  0.0000  0.0000  0.3298  0.0237  0.0000  0.0000  0.0000  0.0000 </r>
       </set>
      </set>
      <set comment="kpoint 56">
       <set comment="band 1">
        <r>  0.0042  0.0000  0.0000  0.0000  0.0000  0.0000  0.0000  0.0000  0.0000 </r>
        <r>  0.0000  0.0000  0.0000  0.0000  0.0023  0.0000  0.8152  0.0000  0.1497 </r>
       </set>
       <set comment="band 2">
        <r>  0.0000  0.0005  0.0000  0.0000  0.0000  0.0000  0.0000  0.0000  0.0000 </r>
        <r>  0.0000  0.0000  0.0000  0.0000  0.0078  0.0000  0.1471  0.0000  0.8205 </r>
       </set>
       <set comment="band 3">
        <r>  0.0000  0.0000  0.0000  0.0000  0.0000  0.0000  0.0000  0.0000  0.0000 </r>
        <r>  0.0000  0.0000  0.0000  0.0000  0.9671  0.0000  0.0062  0.0000  0.0039 </r>
       </set>
       <set comment="band 4">
        <r>  0.0000  0.0000  0.0000  0.0000  0.0000  0.0000  0.0000  0.0000  0.0000 </r>
        <r>  0.0000  0.0000  0.0000  0.0000  0.0000  0.9724  0.0000  0.0052  0.0000 </r>
       </set>
       <set comment="band 5">
        <r>  0.0000  0.0000  0.0000  0.0000  0.0000  0.0000  0.0000  0.0000  0.0000 </r>
        <r>  0.0000  0.0000  0.0000  0.0000  0.0000  0.0052  0.0000  0.9740  0.0000 </r>
       </set>
       <set comment="band 6">
        <r>  0.6738  0.0000  0.0000  0.0000  0.0000  0.0000  0.0000  0.0000  0.0000 </r>
        <r>  0.0008  0.0062  0.0000  0.0006  0.0000  0.0000  0.0118  0.0000  0.0024 </r>
       </set>
       <set comment="band 7">
        <r>  0.0008  0.0183  0.0000  0.0020  0.0000  0.0000  0.0024  0.0000  0.0005 </r>
        <r>  0.6606  0.0001  0.0000  0.0002  0.0000  0.0000  0.0000  0.0000  0.0002 </r>
       </set>
       <set comment="band 8">
        <r>  0.0000  0.0000  0.2436  0.0000  0.0000  0.0007  0.0000  0.0000  0.0000 </r>
        <r>  0.0000  0.0000  0.1249  0.0000  0.0000  0.0018  0.0000  0.0001  0.0000 </r>
       </set>
       <set comment="band 9">
        <r>  0.0016  0.0005  0.0000  0.2520  0.0009  0.0000  0.0001  0.0000  0.0002 </r>
        <r>  0.0049  0.0000  0.0000  0.1235  0.0020  0.0000  0.0002  0.0000  0.0005 </r>
       </set>
       <set comment="band 10">
        <r>  0.0024  0.4295  0.0000  0.0000  0.0001  0.0000  0.0014  0.0000  0.0001 </r>
        <r>  0.0691  0.0191  0.0000  0.0001  0.0003  0.0000  0.0040  0.0000  0.0101 </r>
       </set>
       <set comment="band 11">
        <r>  0.0427  0.0269  0.0000  0.0002  0.0006  0.0000  0.0043  0.0000  0.0169 </r>
        <r>  0.0038  0.3820  0.0000  0.0001  0.0000  0.0000  0.0000  0.0000  0.0016 </r>
       </set>
       <set comment="band 12">
        <r>  0.0013  0.0005  0.0000  0.2564  0.0374  0.0000  0.0000  0.0000  0.0027 </r>
        <r>  0.0027  0.0031  0.0000  0.1258  0.0104  0.0000  0.0005  0.0000  0.0011 </r>
       </set>
       <set comment="band 13">
        <r>  0.0000  0.0000  0.3005  0.0000  0.0000  0.0337  0.0000  0.0007  0.0000 </r>
        <r>  0.0000  0.0000  0.1459  0.0000  0.0000  0.0066  0.0000  0.0000  0.0000 </r>
       </set>
       <set comment="band 14">
        <r>  0.0039  0.0011  0.0000  0.0494  0.0351  0.0000  0.0012  0.0000  0.0022 </r>
        <r>  0.0021  0.0015  0.0000  0.2343  0.0389  0.0000  0.0002  0.0000  0.0011 </r>
       </set>
      </set>
     </set>
    </set>
   </array>
  </projected>
 </calculation>
 <structure name="finalpos" >
  <crystal>
   <varray name="basis" >
    <v>       0.00000000       3.28283700       3.28283700 </v>
    <v>       3.28283700       0.00000000       3.28283700 </v>
    <v>       3.28283700       3.28283700       0.00000000 </v>
   </varray>
   <i name="volume">     70.75839193 </i>
   <varray name="rec_basis" >
    <v>      -0.15230729       0.15230729       0.15230729 </v>
    <v>       0.15230729      -0.15230729       0.15230729 </v>
    <v>       0.15230729       0.15230729      -0.15230729 </v>
   </varray>
  </crystal>
  <varray name="positions" >
   <v>       0.50000000       0.50000000       0.50000000 </v>
   <v>       0.00000000       0.00000000       0.00000000 </v>
  </varray>
 </structure>
</modeling>
