 vasp.5.4.4.18Apr17-6-g9f103f2a35 (build Jan 25 2021 16:16:55) complex          
  
 executed on             LinuxIFC date 2022.02.25  08:23:39
 running on    4 total cores
 distrk:  each k-point on    4 cores,    1 groups
 distr:  one band on NCORES_PER_BAND=   2 cores,    2 groups


--------------------------------------------------------------------------------------------------------


 INCAR:
 POTCAR:    PAW_PBE Ru 04Feb2005                  
 POTCAR:    PAW_PBE S 06Sep2000                   
 POTCAR:    PAW_PBE Ru 04Feb2005                  
   SHA256 =  eb01c60891ca575667b21dd13fd73e5ddb700a7eb60f8fc9c1c02aa9d1087909 Ru
   COPYR  = (c) Copyright 04Feb2005 Georg Kresse                                
   COPYR  = This file is part of the software VASP. Any use, copying, and all ot
   COPYR  = If you do not have a valid VASP license, you may not use, copy or di
   VRHFIN =Ru: s1 d7                                                            
   LEXCH  = PE                                                                  
   EATOM  =   454.8837 eV,   33.4330 Ry                                         
                                                                                
   TITEL  = PAW_PBE Ru 04Feb2005                                                
   LULTRA =        F    use ultrasoft PP ?                                      
   IUNSCR =        1    unscreen: 0-lin 1-nonlin 2-no                           
   RPACOR =    2.170    partial core radius                                     
   POMASS =  101.070; ZVAL   =    8.000    mass and valenz                      
   RCORE  =    2.700    outmost cutoff radius                                   
   RWIGS  =    2.650; RWIGS  =    1.402    wigner-seitz radius (au A)           
   ENMAX  =  213.271; ENMIN  =  159.953 eV                                      
   ICORE  =        3    local potential                                         
   LCOR   =        T    correct aug charges                                     
   LPAW   =        T    paw PP                                                  
   EAUG   =  333.494                                                            
   DEXC   =    0.000                                                            
   RMAX   =    2.758    core radius for proj-oper                               
   RAUG   =    1.300    factor for augmentation sphere                          
   RDEP   =    2.865    radius for radial grids                                 
   RDEPT  =    2.250    core radius for aug-charge                              
                                                                                
   Atomic configuration                                                         
   12 entries                                                                   
     n  l   j            E        occ.                                          
     1  0  0.50    -21933.2693   2.0000                                         
     2  0  0.50     -3153.4097   2.0000                                         
     2  1  1.50     -2823.9548   6.0000                                         
     3  0  0.50      -555.3323   2.0000                                         
     3  1  1.50      -447.1024   6.0000                                         
     3  2  2.50      -273.0570  10.0000                                         
     4  0  0.50       -76.3589   2.0000                                         
     4  1  1.50       -46.4050   6.0000                                         
     4  2  2.50        -5.2029   7.0000                                         
     5  0  0.50        -4.2392   1.0000                                         
     5  1  0.50        -1.3606   0.0000                                         
     4  3  2.50        -1.3606   0.0000                                         
   Description                                                                  
     l       E           TYP  RCUT    TYP  RCUT                                 
     2     -5.2028939     23  2.600                                             
     2     -6.5634765     23  2.600                                             
     0     -4.2392259     23  2.700                                             
     0     27.2116520     23  2.700                                             
     1     -4.0817478     23  2.700                                             
     1     27.2116520     23  2.700                                             
     3     -5.4423304     23  2.600                                             
  local pseudopotential read in
  partial core-charges read in
  partial kinetic energy density read in
  atomic valenz-charges read in
  non local Contribution for L=           2  read in
    real space projection operators read in
  non local Contribution for L=           2  read in
    real space projection operators read in
  non local Contribution for L=           0  read in
    real space projection operators read in
  non local Contribution for L=           0  read in
    real space projection operators read in
  non local Contribution for L=           1  read in
    real space projection operators read in
  non local Contribution for L=           1  read in
    real space projection operators read in
    PAW grid and wavefunctions read in
 
   number of l-projection  operators is LMAX  =           6
   number of lm-projection operators is LMMAX =          18
 
 POTCAR:    PAW_PBE S 06Sep2000                   
   SHA256 =  0fc7481fb0695f01bdc6462160264c5c84044ae9ec85a907d398b887a2bc3132 S/
   COPYR  = (c) Copyright 06Sep2000 Georg Kresse                                
   COPYR  = This file is part of the software VASP. Any use, copying, and all ot
   COPYR  = If you do not have a valid VASP license, you may not use, copy or di
   VRHFIN =S : s2p4                                                             
   LEXCH  = PE                                                                  
   EATOM  =   276.8230 eV,   20.3459 Ry                                         
                                                                                
   TITEL  = PAW_PBE S 06Sep2000                                                 
   LULTRA =        F    use ultrasoft PP ?                                      
   IUNSCR =        1    unscreen: 0-lin 1-nonlin 2-no                           
   RPACOR =    1.500    partial core radius                                     
   POMASS =   32.066; ZVAL   =    6.000    mass and valenz                      
   RCORE  =    1.900    outmost cutoff radius                                   
   RWIGS  =    2.200; RWIGS  =    1.164    wigner-seitz radius (au A)           
   ENMAX  =  258.689; ENMIN  =  194.016 eV                                      
   ICORE  =        2    local potential                                         
   LCOR   =        T    correct aug charges                                     
   LPAW   =        T    paw PP                                                  
   EAUG   =  335.092                                                            
   DEXC   =    0.000                                                            
   RMAX   =    1.942    core radius for proj-oper                               
   RAUG   =    1.300    factor for augmentation sphere                          
   RDEP   =    1.954    radius for radial grids                                 
   RDEPT  =    1.744    core radius for aug-charge                              
                                                                                
   Atomic configuration                                                         
    6 entries                                                                   
     n  l   j            E        occ.                                          
     1  0  0.50     -2405.8406   2.0000                                         
     2  0  0.50      -211.7007   2.0000                                         
     2  1  1.50      -156.4958   6.0000                                         
     3  0  0.50       -17.2562   2.0000                                         
     3  1  0.50        -7.0085   4.0000                                         
     3  2  1.50        -6.8029   0.0000                                         
   Description                                                                  
     l       E           TYP  RCUT    TYP  RCUT                                 
     0    -17.2561641     23  1.900                                             
     0    -15.8743224     23  1.900                                             
     1     -7.0085400     23  1.900                                             
     1     -2.7779785     23  1.900                                             
     2     -6.8029130     23  1.900                                             
  local pseudopotential read in
  partial core-charges read in
  partial kinetic energy density read in
  atomic valenz-charges read in
  non local Contribution for L=           0  read in
    real space projection operators read in
  non local Contribution for L=           0  read in
    real space projection operators read in
  non local Contribution for L=           1  read in
    real space projection operators read in
  non local Contribution for L=           1  read in
    real space projection operators read in
    PAW grid and wavefunctions read in
 
   number of l-projection  operators is LMAX  =           4
   number of lm-projection operators is LMMAX =           8
 
  PAW_PBE Ru 04Feb2005                  :
 energy of atom  1       EATOM= -454.8837
 kinetic energy error for atom=    0.0323 (will be added to EATOM!!)
  PAW_PBE S 06Sep2000                   :
 energy of atom  2       EATOM= -276.8230
 kinetic energy error for atom=    0.0263 (will be added to EATOM!!)
 
 
 POSCAR: Ru4 S8                                  
  positions in direct lattice
  No initial velocities read in
 exchange correlation table for  LEXCH =        8
   RHO(1)=    0.500       N(1)  =     2000
   RHO(2)=  100.500       N(2)  =     4000
 


--------------------------------------------------------------------------------------------------------


 ion  position               nearest neighbor table
   1  0.000  0.500  0.500-   6 2.37   7 2.37   8 2.37   9 2.37  10 2.37  11 2.37
   2  0.500  0.500  0.000-   5 2.37   7 2.37   8 2.37   9 2.37  10 2.37  12 2.37
   3  0.500  0.000  0.500-   5 2.37   6 2.37   8 2.37   9 2.37  11 2.37  12 2.37
   4  0.000  0.000  0.000-   5 2.37   6 2.37   7 2.37  10 2.37  11 2.37  12 2.37
   5  0.387  0.113  0.887-  12 2.21   3 2.37   4 2.37   2 2.37
   6  0.113  0.887  0.387-  11 2.21   3 2.37   4 2.37   1 2.37
   7  0.887  0.387  0.113-  10 2.21   2 2.37   4 2.37   1 2.37
   8  0.613  0.613  0.613-   9 2.21   2 2.37   3 2.37   1 2.37
   9  0.387  0.387  0.387-   8 2.21   2 2.37   3 2.37   1 2.37
  10  0.113  0.613  0.887-   7 2.21   2 2.37   4 2.37   1 2.37
  11  0.887  0.113  0.613-   6 2.21   3 2.37   4 2.37   1 2.37
  12  0.613  0.887  0.113-   5 2.21   3 2.37   4 2.37   2 2.37
 
  LATTYP: Found a simple cubic cell.
 ALAT       =     5.6558220000
  
  Lattice vectors:
  
 A1 = (   5.6558220000,   0.0000000000,   0.0000000000)
 A2 = (   0.0000000000,   5.6558220000,   0.0000000000)
 A3 = (   0.0000000000,   0.0000000000,   5.6558220000)


Analysis of symmetry for initial positions (statically):
=====================================================================
 Subroutine PRICEL returns:
 Original cell was already a primitive cell.
 

 Routine SETGRP: Setting up the symmetry group for a 
 simple cubic supercell.


 Subroutine GETGRP returns: Found 24 space group operations
 (whereof  6 operations were pure point group operations)
 out of a pool of 48 trial point group operations.


The static configuration has the point symmetry S_6 .
 The point group associated with its full space group is T_h .


Analysis of symmetry for dynamics (positions and initial velocities):
=====================================================================
 Subroutine PRICEL returns:
 Original cell was already a primitive cell.
 

 Routine SETGRP: Setting up the symmetry group for a 
 simple cubic supercell.


 Subroutine GETGRP returns: Found 24 space group operations
 (whereof  6 operations were pure point group operations)
 out of a pool of 48 trial point group operations.


The dynamic configuration has the point symmetry S_6 .
 The point group associated with its full space group is T_h .


 Subroutine INISYM returns: Found 24 space group operations
 (whereof  6 operations are pure point group operations),
 and found     1 'primitive' translations

 
 
 KPOINTS: K-Points                                

Automatic generation of k-mesh.
Space group operators:
 irot       det(A)        alpha          n_x          n_y          n_z        tau_x        tau_y        tau_z
    1     1.000000     0.000000     1.000000     0.000000     0.000000     0.000000     0.000000     0.000000
    2    -1.000000     0.000000     1.000000     0.000000     0.000000     0.000000     0.000000     0.000000
    3     1.000000   120.000000    -0.577350    -0.577350    -0.577350     0.000000     0.000000     0.000000
    4    -1.000000   120.000000    -0.577350    -0.577350    -0.577350     0.000000     0.000000     0.000000
    5     1.000000   120.000000     0.577350     0.577350     0.577350     0.000000     0.000000     0.000000
    6    -1.000000   120.000000     0.577350     0.577350     0.577350     0.000000     0.000000     0.000000
    7     1.000000   180.000000     0.000000     0.000000     1.000000     0.500000     0.000000     0.500000
    8    -1.000000   180.000000     0.000000     0.000000     1.000000     0.500000     0.000000     0.500000
    9     1.000000   120.000000    -0.577350     0.577350     0.577350     0.500000     0.000000     0.500000
   10    -1.000000   120.000000    -0.577350     0.577350     0.577350     0.500000     0.000000     0.500000
   11     1.000000   120.000000    -0.577350     0.577350    -0.577350     0.500000     0.000000     0.500000
   12    -1.000000   120.000000    -0.577350     0.577350    -0.577350     0.500000     0.000000     0.500000
   13     1.000000   120.000000     0.577350    -0.577350     0.577350     0.500000     0.500000     0.000000
   14    -1.000000   120.000000     0.577350    -0.577350     0.577350     0.500000     0.500000     0.000000
   15     1.000000   120.000000    -0.577350    -0.577350     0.577350     0.500000     0.500000     0.000000
   16    -1.000000   120.000000    -0.577350    -0.577350     0.577350     0.500000     0.500000     0.000000
   17     1.000000   180.000000     1.000000     0.000000     0.000000     0.500000     0.500000     0.000000
   18    -1.000000   180.000000     1.000000     0.000000     0.000000     0.500000     0.500000     0.000000
   19     1.000000   120.000000     0.577350    -0.577350    -0.577350     0.000000     0.500000     0.500000
   20    -1.000000   120.000000     0.577350    -0.577350    -0.577350     0.000000     0.500000     0.500000
   21     1.000000   180.000000     0.000000     1.000000     0.000000     0.000000     0.500000     0.500000
   22    -1.000000   180.000000     0.000000     1.000000     0.000000     0.000000     0.500000     0.500000
   23     1.000000   120.000000     0.577350     0.577350    -0.577350     0.000000     0.500000     0.500000
   24    -1.000000   120.000000     0.577350     0.577350    -0.577350     0.000000     0.500000     0.500000
 
 Subroutine IBZKPT returns following result:
 ===========================================
 
 Found     76 irreducible k-points:
 
 Following reciprocal coordinates:
            Coordinates               Weight
  0.000000  0.000000  0.000000      1.000000
  0.090909  0.000000  0.000000      6.000000
  0.181818  0.000000  0.000000      6.000000
  0.272727  0.000000  0.000000      6.000000
  0.363636  0.000000  0.000000      6.000000
  0.454545  0.000000  0.000000      6.000000
  0.090909  0.090909  0.000000     12.000000
  0.181818  0.090909  0.000000     12.000000
  0.272727  0.090909  0.000000     12.000000
  0.363636  0.090909  0.000000     12.000000
  0.454545  0.090909  0.000000     12.000000
  0.090909  0.181818  0.000000     12.000000
  0.181818  0.181818  0.000000     12.000000
  0.272727  0.181818  0.000000     12.000000
  0.363636  0.181818  0.000000     12.000000
  0.454545  0.181818  0.000000     12.000000
  0.090909  0.272727  0.000000     12.000000
  0.181818  0.272727  0.000000     12.000000
  0.272727  0.272727  0.000000     12.000000
  0.363636  0.272727  0.000000     12.000000
  0.454545  0.272727  0.000000     12.000000
  0.090909  0.363636  0.000000     12.000000
  0.181818  0.363636  0.000000     12.000000
  0.272727  0.363636  0.000000     12.000000
  0.363636  0.363636  0.000000     12.000000
  0.454545  0.363636  0.000000     12.000000
  0.090909  0.454545  0.000000     12.000000
  0.181818  0.454545  0.000000     12.000000
  0.272727  0.454545  0.000000     12.000000
  0.363636  0.454545  0.000000     12.000000
  0.454545  0.454545  0.000000     12.000000
  0.090909  0.090909  0.090909      8.000000
  0.181818  0.090909  0.090909     24.000000
  0.272727  0.090909  0.090909     24.000000
  0.363636  0.090909  0.090909     24.000000
  0.454545  0.090909  0.090909     24.000000
  0.181818  0.181818  0.090909     24.000000
  0.272727  0.181818  0.090909     24.000000
  0.363636  0.181818  0.090909     24.000000
  0.454545  0.181818  0.090909     24.000000
  0.181818  0.272727  0.090909     24.000000
  0.272727  0.272727  0.090909     24.000000
  0.363636  0.272727  0.090909     24.000000
  0.454545  0.272727  0.090909     24.000000
  0.181818  0.363636  0.090909     24.000000
  0.272727  0.363636  0.090909     24.000000
  0.363636  0.363636  0.090909     24.000000
  0.454545  0.363636  0.090909     24.000000
  0.181818  0.454545  0.090909     24.000000
  0.272727  0.454545  0.090909     24.000000
  0.363636  0.454545  0.090909     24.000000
  0.454545  0.454545  0.090909     24.000000
  0.181818  0.181818  0.181818      8.000000
  0.272727  0.181818  0.181818     24.000000
  0.363636  0.181818  0.181818     24.000000
  0.454545  0.181818  0.181818     24.000000
  0.272727  0.272727  0.181818     24.000000
  0.363636  0.272727  0.181818     24.000000
  0.454545  0.272727  0.181818     24.000000
  0.272727  0.363636  0.181818     24.000000
  0.363636  0.363636  0.181818     24.000000
  0.454545  0.363636  0.181818     24.000000
  0.272727  0.454545  0.181818     24.000000
  0.363636  0.454545  0.181818     24.000000
  0.454545  0.454545  0.181818     24.000000
  0.272727  0.272727  0.272727      8.000000
  0.363636  0.272727  0.272727     24.000000
  0.454545  0.272727  0.272727     24.000000
  0.363636  0.363636  0.272727     24.000000
  0.454545  0.363636  0.272727     24.000000
  0.363636  0.454545  0.272727     24.000000
  0.454545  0.454545  0.272727     24.000000
  0.363636  0.363636  0.363636      8.000000
  0.454545  0.363636  0.363636     24.000000
  0.454545  0.454545  0.363636     24.000000
  0.454545  0.454545  0.454545      8.000000
 
 Following cartesian coordinates:
            Coordinates               Weight
  0.000000  0.000000  0.000000      1.000000
  0.016074  0.000000  0.000000      6.000000
  0.032147  0.000000  0.000000      6.000000
  0.048221  0.000000  0.000000      6.000000
  0.064294  0.000000  0.000000      6.000000
  0.080368  0.000000  0.000000      6.000000
  0.016074  0.016074  0.000000     12.000000
  0.032147  0.016074  0.000000     12.000000
  0.048221  0.016074  0.000000     12.000000
  0.064294  0.016074  0.000000     12.000000
  0.080368  0.016074  0.000000     12.000000
  0.016074  0.032147  0.000000     12.000000
  0.032147  0.032147  0.000000     12.000000
  0.048221  0.032147  0.000000     12.000000
  0.064294  0.032147  0.000000     12.000000
  0.080368  0.032147  0.000000     12.000000
  0.016074  0.048221  0.000000     12.000000
  0.032147  0.048221  0.000000     12.000000
  0.048221  0.048221  0.000000     12.000000
  0.064294  0.048221  0.000000     12.000000
  0.080368  0.048221  0.000000     12.000000
  0.016074  0.064294  0.000000     12.000000
  0.032147  0.064294  0.000000     12.000000
  0.048221  0.064294  0.000000     12.000000
  0.064294  0.064294  0.000000     12.000000
  0.080368  0.064294  0.000000     12.000000
  0.016074  0.080368  0.000000     12.000000
  0.032147  0.080368  0.000000     12.000000
  0.048221  0.080368  0.000000     12.000000
  0.064294  0.080368  0.000000     12.000000
  0.080368  0.080368  0.000000     12.000000
  0.016074  0.016074  0.016074      8.000000
  0.032147  0.016074  0.016074     24.000000
  0.048221  0.016074  0.016074     24.000000
  0.064294  0.016074  0.016074     24.000000
  0.080368  0.016074  0.016074     24.000000
  0.032147  0.032147  0.016074     24.000000
  0.048221  0.032147  0.016074     24.000000
  0.064294  0.032147  0.016074     24.000000
  0.080368  0.032147  0.016074     24.000000
  0.032147  0.048221  0.016074     24.000000
  0.048221  0.048221  0.016074     24.000000
  0.064294  0.048221  0.016074     24.000000
  0.080368  0.048221  0.016074     24.000000
  0.032147  0.064294  0.016074     24.000000
  0.048221  0.064294  0.016074     24.000000
  0.064294  0.064294  0.016074     24.000000
  0.080368  0.064294  0.016074     24.000000
  0.032147  0.080368  0.016074     24.000000
  0.048221  0.080368  0.016074     24.000000
  0.064294  0.080368  0.016074     24.000000
  0.080368  0.080368  0.016074     24.000000
  0.032147  0.032147  0.032147      8.000000
  0.048221  0.032147  0.032147     24.000000
  0.064294  0.032147  0.032147     24.000000
  0.080368  0.032147  0.032147     24.000000
  0.048221  0.048221  0.032147     24.000000
  0.064294  0.048221  0.032147     24.000000
  0.080368  0.048221  0.032147     24.000000
  0.048221  0.064294  0.032147     24.000000
  0.064294  0.064294  0.032147     24.000000
  0.080368  0.064294  0.032147     24.000000
  0.048221  0.080368  0.032147     24.000000
  0.064294  0.080368  0.032147     24.000000
  0.080368  0.080368  0.032147     24.000000
  0.048221  0.048221  0.048221      8.000000
  0.064294  0.048221  0.048221     24.000000
  0.080368  0.048221  0.048221     24.000000
  0.064294  0.064294  0.048221     24.000000
  0.080368  0.064294  0.048221     24.000000
  0.064294  0.080368  0.048221     24.000000
  0.080368  0.080368  0.048221     24.000000
  0.064294  0.064294  0.064294      8.000000
  0.080368  0.064294  0.064294     24.000000
  0.080368  0.080368  0.064294     24.000000
  0.080368  0.080368  0.080368      8.000000
 


--------------------------------------------------------------------------------------------------------




 Dimension of arrays:
   k-points           NKPTS =     76   k-points in BZ     NKDIM =     76   number of bands    NBANDS=     48
   number of dos      NEDOS =    301   number of ions     NIONS =     12
   non local maximal  LDIM  =      6   non local SUM 2l+1 LMDIM =     18
   total plane-waves  NPLWV =  27000
   max r-space proj   IRMAX =      1   max aug-charges    IRDMAX=  10292
   dimension x,y,z NGX =    30 NGY =   30 NGZ =   30
   dimension x,y,z NGXF=    60 NGYF=   60 NGZF=   60
   support grid    NGXF=    60 NGYF=   60 NGZF=   60
   ions per type =               4   8
   NGX,Y,Z   is equivalent  to a cutoff of   8.82,  8.82,  8.82 a.u.
   NGXF,Y,Z  is equivalent  to a cutoff of  17.64, 17.64, 17.64 a.u.

 SYSTEM =  unknown system                          
 POSCAR =  Ru4 S8                                  

 Startparameter for this run:
   NWRITE =      2    write-flag & timer
   PREC   = accura    normal or accurate (medium, high low for compatibility)
   ISTART =      0    job   : 0-new  1-cont  2-samecut
   ICHARG =      2    charge: 1-file 2-atom 10-const
   ISPIN  =      1    spin polarized calculation?
   LNONCOLLINEAR =      F non collinear calculations
   LSORBIT =      F    spin-orbit coupling
   INIWAV =      1    electr: 0-lowe 1-rand  2-diag
   LASPH  =      F    aspherical Exc in radial PAW
   METAGGA=      F    non-selfconsistent MetaGGA calc.

 Electronic Relaxation 1
   ENCUT  =  258.7 eV  19.01 Ry    4.36 a.u.   7.42  7.42  7.42*2*pi/ulx,y,z
   ENINI  =  258.7     initial cutoff
   ENAUG  =  335.1 eV  augmentation charge cutoff
   NELM   =     60;   NELMIN=  2; NELMDL= -5     # of ELM steps 
   EDIFF  = 0.1E-05   stopping-criterion for ELM
   LREAL  =      F    real-space projection
   NLSPLINE    = F    spline interpolate recip. space projectors
   LCOMPAT=      F    compatible to vasp.4.4
   GGA_COMPAT  = T    GGA compatible to vasp.4.4-vasp.4.6
   LMAXPAW     = -100 max onsite density
   LMAXMIX     =    2 max onsite mixed and CHGCAR
   VOSKOWN=      0    Vosko Wilk Nusair interpolation
   ROPT   =    0.00000   0.00000
 Ionic relaxation
   EDIFFG = 0.1E-04   stopping-criterion for IOM
   NSW    =      0    number of steps for IOM
   NBLOCK =      1;   KBLOCK =      1    inner block; outer block 
   IBRION =     -1    ionic relax: 0-MD 1-quasi-New 2-CG
   NFREE  =      0    steps in history (QN), initial steepest desc. (CG)
   ISIF   =      2    stress and relaxation
   IWAVPR =     10    prediction:  0-non 1-charg 2-wave 3-comb
   ISYM   =      2    0-nonsym 1-usesym 2-fastsym
   LCORR  =      T    Harris-Foulkes like correction to forces

   POTIM  = 0.5000    time-step for ionic-motion
   TEIN   =    0.0    initial temperature
   TEBEG  =    0.0;   TEEND  =   0.0 temperature during run
   SMASS  =  -3.00    Nose mass-parameter (am)
   estimated Nose-frequenzy (Omega)   =  0.10E-29 period in steps =****** mass=  -0.731E-27a.u.
   SCALEE = 1.0000    scale energy and forces
   NPACO  =    256;   APACO  = 16.0  distance and # of slots for P.C.
   PSTRESS=    0.0 pullay stress

  Mass of Ions in am
   POMASS = 101.07 32.07
  Ionic Valenz
   ZVAL   =   8.00  6.00
  Atomic Wigner-Seitz radii
   RWIGS  =  -1.00 -1.00
  virtual crystal weights 
   VCA    =   1.00  1.00
   NELECT =      80.0000    total number of electrons
   NUPDOWN=      -1.0000    fix difference up-down

 DOS related values:
   EMIN   =  10.00;   EMAX   =-10.00  energy-range for DOS
   EFERMI =   0.00
   ISMEAR =     0;   SIGMA  =   0.05  broadening in eV -4-tet -1-fermi 0-gaus

 Electronic relaxation 2 (details)
   IALGO  =     38    algorithm
   LDIAG  =      T    sub-space diagonalisation (order eigenvalues)
   LSUBROT=      F    optimize rotation matrix (better conditioning)
   TURBO    =      0    0=normal 1=particle mesh
   IRESTART =      0    0=no restart 2=restart with 2 vectors
   NREBOOT  =      0    no. of reboots
   NMIN     =      0    reboot dimension
   EREF     =   0.00    reference energy to select bands
   IMIX   =      4    mixing-type and parameters
     AMIX     =   0.40;   BMIX     =  1.00
     AMIX_MAG =   1.60;   BMIX_MAG =  1.00
     AMIN     =   0.10
     WC   =   100.;   INIMIX=   1;  MIXPRE=   1;  MAXMIX= -45

 Intra band minimization:
   WEIMIN = 0.0000     energy-eigenvalue tresh-hold
   EBREAK =  0.52E-08  absolut break condition
   DEPER  =   0.30     relativ break condition  

   TIME   =   0.40     timestep for ELM

  volume/ion in A,a.u.               =      15.08       101.74
  Fermi-wavevector in a.u.,A,eV,Ry     =   1.247218  2.356901 21.164585  1.555553
  Thomas-Fermi vector in A             =   2.381360
 
 Write flags
   LWAVE        =      T    write WAVECAR
   LDOWNSAMPLE  =      F    k-point downsampling of WAVECAR
   LCHARG       =      T    write CHGCAR
   LVTOT        =      F    write LOCPOT, total local potential
   LVHAR        =      F    write LOCPOT, Hartree potential only
   LELF         =      F    write electronic localiz. function (ELF)
   LORBIT       =     11    0 simple, 1 ext, 2 COOP (PROOUT), +10 PAW based schemes


 Dipole corrections
   LMONO  =      F    monopole corrections only (constant potential shift)
   LDIPOL =      F    correct potential (dipole corrections)
   IDIPOL =      0    1-x, 2-y, 3-z, 4-all directions 
   EPSILON=  1.0000000 bulk dielectric constant

 Exchange correlation treatment:
   GGA     =    --    GGA type
   LEXCH   =     8    internal setting for exchange type
   VOSKOWN=      0    Vosko Wilk Nusair interpolation
   LHFCALC =     F    Hartree Fock is set to
   LHFONE  =     F    Hartree Fock one center treatment
   AEXX    =    0.0000 exact exchange contribution

 Linear response parameters
   LEPSILON=     F    determine dielectric tensor
   LRPA    =     F    only Hartree local field effects (RPA)
   LNABLA  =     F    use nabla operator in PAW spheres
   LVEL    =     F    velocity operator in full k-point grid
   LINTERFAST=   F  fast interpolation
   KINTER  =     0    interpolate to denser k-point grid
   CSHIFT  =0.1000    complex shift for real part using Kramers Kronig
   OMEGAMAX=  -1.0    maximum frequency
   DEG_THRESHOLD= 0.2000000E-02 threshold for treating states as degnerate
   RTIME   =   -0.100 relaxation time in fs
  (WPLASMAI=    0.000 imaginary part of plasma frequency in eV, 0.658/RTIME)
   DFIELD  = 0.0000000 0.0000000 0.0000000 field for delta impulse in time
 
 Orbital magnetization related:
   ORBITALMAG=     F  switch on orbital magnetization
   LCHIMAG   =     F  perturbation theory with respect to B field
   DQ        =  0.001000  dq finite difference perturbation B field
   LLRAUG    =     F  two centre corrections for induced B field



--------------------------------------------------------------------------------------------------------


 Static calculation
 charge density and potential will be updated during run
 non-spin polarized calculation
 Variant of blocked Davidson
 Davidson routine will perform the subspace rotation
 perform sub-space diagonalisation
    after iterative eigenvector-optimisation
 modified Broyden-mixing scheme, WC =      100.0
 initial mixing is a Kerker type mixing with AMIX =  0.4000 and BMIX =      1.0000
 Hartree-type preconditioning will be used
 using additional bands            8
 reciprocal scheme for non local part
 use partial core corrections
 calculate Harris-corrections to forces 
   (improved forces if not selfconsistent)
 use gradient corrections 
 use of overlap-Matrix (Vanderbilt PP)
 Gauss-broadening in eV      SIGMA  =   0.05


--------------------------------------------------------------------------------------------------------


  energy-cutoff  :      258.69
  volume of cell :      180.92
      direct lattice vectors                 reciprocal lattice vectors
     5.655822000  0.000000000  0.000000000     0.176808959  0.000000000  0.000000000
     0.000000000  5.655822000  0.000000000     0.000000000  0.176808959  0.000000000
     0.000000000  0.000000000  5.655822000     0.000000000  0.000000000  0.176808959

  length of vectors
     5.655822000  5.655822000  5.655822000     0.176808959  0.176808959  0.176808959


 
 k-points in units of 2pi/SCALE and weight: K-Points                                
   0.00000000  0.00000000  0.00000000       0.001
   0.01607354  0.00000000  0.00000000       0.005
   0.03214708  0.00000000  0.00000000       0.005
   0.04822063  0.00000000  0.00000000       0.005
   0.06429417  0.00000000  0.00000000       0.005
   0.08036771  0.00000000  0.00000000       0.005
   0.01607354  0.01607354  0.00000000       0.009
   0.03214708  0.01607354  0.00000000       0.009
   0.04822063  0.01607354  0.00000000       0.009
   0.06429417  0.01607354  0.00000000       0.009
   0.08036771  0.01607354  0.00000000       0.009
   0.01607354  0.03214708  0.00000000       0.009
   0.03214708  0.03214708  0.00000000       0.009
   0.04822063  0.03214708  0.00000000       0.009
   0.06429417  0.03214708  0.00000000       0.009
   0.08036771  0.03214708  0.00000000       0.009
   0.01607354  0.04822063  0.00000000       0.009
   0.03214708  0.04822063  0.00000000       0.009
   0.04822063  0.04822063  0.00000000       0.009
   0.06429417  0.04822063  0.00000000       0.009
   0.08036771  0.04822063  0.00000000       0.009
   0.01607354  0.06429417  0.00000000       0.009
   0.03214708  0.06429417  0.00000000       0.009
   0.04822063  0.06429417  0.00000000       0.009
   0.06429417  0.06429417  0.00000000       0.009
   0.08036771  0.06429417  0.00000000       0.009
   0.01607354  0.08036771  0.00000000       0.009
   0.03214708  0.08036771  0.00000000       0.009
   0.04822063  0.08036771  0.00000000       0.009
   0.06429417  0.08036771  0.00000000       0.009
   0.08036771  0.08036771  0.00000000       0.009
   0.01607354  0.01607354  0.01607354       0.006
   0.03214708  0.01607354  0.01607354       0.018
   0.04822063  0.01607354  0.01607354       0.018
   0.06429417  0.01607354  0.01607354       0.018
   0.08036771  0.01607354  0.01607354       0.018
   0.03214708  0.03214708  0.01607354       0.018
   0.04822063  0.03214708  0.01607354       0.018
   0.06429417  0.03214708  0.01607354       0.018
   0.08036771  0.03214708  0.01607354       0.018
   0.03214708  0.04822063  0.01607354       0.018
   0.04822063  0.04822063  0.01607354       0.018
   0.06429417  0.04822063  0.01607354       0.018
   0.08036771  0.04822063  0.01607354       0.018
   0.03214708  0.06429417  0.01607354       0.018
   0.04822063  0.06429417  0.01607354       0.018
   0.06429417  0.06429417  0.01607354       0.018
   0.08036771  0.06429417  0.01607354       0.018
   0.03214708  0.08036771  0.01607354       0.018
   0.04822063  0.08036771  0.01607354       0.018
   0.06429417  0.08036771  0.01607354       0.018
   0.08036771  0.08036771  0.01607354       0.018
   0.03214708  0.03214708  0.03214708       0.006
   0.04822063  0.03214708  0.03214708       0.018
   0.06429417  0.03214708  0.03214708       0.018
   0.08036771  0.03214708  0.03214708       0.018
   0.04822063  0.04822063  0.03214708       0.018
   0.06429417  0.04822063  0.03214708       0.018
   0.08036771  0.04822063  0.03214708       0.018
   0.04822063  0.06429417  0.03214708       0.018
   0.06429417  0.06429417  0.03214708       0.018
   0.08036771  0.06429417  0.03214708       0.018
   0.04822063  0.08036771  0.03214708       0.018
   0.06429417  0.08036771  0.03214708       0.018
   0.08036771  0.08036771  0.03214708       0.018
   0.04822063  0.04822063  0.04822063       0.006
   0.06429417  0.04822063  0.04822063       0.018
   0.08036771  0.04822063  0.04822063       0.018
   0.06429417  0.06429417  0.04822063       0.018
   0.08036771  0.06429417  0.04822063       0.018
   0.06429417  0.08036771  0.04822063       0.018
   0.08036771  0.08036771  0.04822063       0.018
   0.06429417  0.06429417  0.06429417       0.006
   0.08036771  0.06429417  0.06429417       0.018
   0.08036771  0.08036771  0.06429417       0.018
   0.08036771  0.08036771  0.08036771       0.006
 
 k-points in reciprocal lattice and weights: K-Points                                
   0.00000000  0.00000000  0.00000000       0.001
   0.09090909  0.00000000  0.00000000       0.005
   0.18181818  0.00000000  0.00000000       0.005
   0.27272727  0.00000000  0.00000000       0.005
   0.36363636  0.00000000  0.00000000       0.005
   0.45454545  0.00000000  0.00000000       0.005
   0.09090909  0.09090909  0.00000000       0.009
   0.18181818  0.09090909  0.00000000       0.009
   0.27272727  0.09090909  0.00000000       0.009
   0.36363636  0.09090909  0.00000000       0.009
   0.45454545  0.09090909  0.00000000       0.009
   0.09090909  0.18181818  0.00000000       0.009
   0.18181818  0.18181818  0.00000000       0.009
   0.27272727  0.18181818  0.00000000       0.009
   0.36363636  0.18181818  0.00000000       0.009
   0.45454545  0.18181818  0.00000000       0.009
   0.09090909  0.27272727  0.00000000       0.009
   0.18181818  0.27272727  0.00000000       0.009
   0.27272727  0.27272727  0.00000000       0.009
   0.36363636  0.27272727  0.00000000       0.009
   0.45454545  0.27272727  0.00000000       0.009
   0.09090909  0.36363636  0.00000000       0.009
   0.18181818  0.36363636  0.00000000       0.009
   0.27272727  0.36363636  0.00000000       0.009
   0.36363636  0.36363636  0.00000000       0.009
   0.45454545  0.36363636  0.00000000       0.009
   0.09090909  0.45454545  0.00000000       0.009
   0.18181818  0.45454545  0.00000000       0.009
   0.27272727  0.45454545  0.00000000       0.009
   0.36363636  0.45454545  0.00000000       0.009
   0.45454545  0.45454545  0.00000000       0.009
   0.09090909  0.09090909  0.09090909       0.006
   0.18181818  0.09090909  0.09090909       0.018
   0.27272727  0.09090909  0.09090909       0.018
   0.36363636  0.09090909  0.09090909       0.018
   0.45454545  0.09090909  0.09090909       0.018
   0.18181818  0.18181818  0.09090909       0.018
   0.27272727  0.18181818  0.09090909       0.018
   0.36363636  0.18181818  0.09090909       0.018
   0.45454545  0.18181818  0.09090909       0.018
   0.18181818  0.27272727  0.09090909       0.018
   0.27272727  0.27272727  0.09090909       0.018
   0.36363636  0.27272727  0.09090909       0.018
   0.45454545  0.27272727  0.09090909       0.018
   0.18181818  0.36363636  0.09090909       0.018
   0.27272727  0.36363636  0.09090909       0.018
   0.36363636  0.36363636  0.09090909       0.018
   0.45454545  0.36363636  0.09090909       0.018
   0.18181818  0.45454545  0.09090909       0.018
   0.27272727  0.45454545  0.09090909       0.018
   0.36363636  0.45454545  0.09090909       0.018
   0.45454545  0.45454545  0.09090909       0.018
   0.18181818  0.18181818  0.18181818       0.006
   0.27272727  0.18181818  0.18181818       0.018
   0.36363636  0.18181818  0.18181818       0.018
   0.45454545  0.18181818  0.18181818       0.018
   0.27272727  0.27272727  0.18181818       0.018
   0.36363636  0.27272727  0.18181818       0.018
   0.45454545  0.27272727  0.18181818       0.018
   0.27272727  0.36363636  0.18181818       0.018
   0.36363636  0.36363636  0.18181818       0.018
   0.45454545  0.36363636  0.18181818       0.018
   0.27272727  0.45454545  0.18181818       0.018
   0.36363636  0.45454545  0.18181818       0.018
   0.45454545  0.45454545  0.18181818       0.018
   0.27272727  0.27272727  0.27272727       0.006
   0.36363636  0.27272727  0.27272727       0.018
   0.45454545  0.27272727  0.27272727       0.018
   0.36363636  0.36363636  0.27272727       0.018
   0.45454545  0.36363636  0.27272727       0.018
   0.36363636  0.45454545  0.27272727       0.018
   0.45454545  0.45454545  0.27272727       0.018
   0.36363636  0.36363636  0.36363636       0.006
   0.45454545  0.36363636  0.36363636       0.018
   0.45454545  0.45454545  0.36363636       0.018
   0.45454545  0.45454545  0.45454545       0.006
 
 position of ions in fractional coordinates (direct lattice) 
   0.00000000  0.50000000  0.50000000
   0.50000000  0.50000000  0.00000000
   0.50000000  0.00000000  0.50000000
   0.00000000  0.00000000  0.00000000
   0.38719900  0.11280100  0.88719900
   0.11280100  0.88719900  0.38719900
   0.88719900  0.38719900  0.11280100
   0.61280100  0.61280100  0.61280100
   0.38719900  0.38719900  0.38719900
   0.11280100  0.61280100  0.88719900
   0.88719900  0.11280100  0.61280100
   0.61280100  0.88719900  0.11280100
 
 position of ions in cartesian coordinates  (Angst):
   0.00000000  2.82791100  2.82791100
   2.82791100  2.82791100  0.00000000
   2.82791100  0.00000000  2.82791100
   0.00000000  0.00000000  0.00000000
   2.18992862  0.63798238  5.01783962
   0.63798238  5.01783962  2.18992862
   5.01783962  2.18992862  0.63798238
   3.46589338  3.46589338  3.46589338
   2.18992862  2.18992862  2.18992862
   0.63798238  3.46589338  5.01783962
   5.01783962  0.63798238  3.46589338
   3.46589338  5.01783962  0.63798238
 


--------------------------------------------------------------------------------------------------------


 k-point  1 :   0.0000 0.0000 0.0000  plane waves:    1743
 k-point  2 :   0.0909 0.0000 0.0000  plane waves:    1739
 k-point  3 :   0.1818 0.0000 0.0000  plane waves:    1723
 k-point  4 :   0.2727 0.0000 0.0000  plane waves:    1723
 k-point  5 :   0.3636 0.0000 0.0000  plane waves:    1719
 k-point  6 :   0.4545 0.0000 0.0000  plane waves:    1706
 k-point  7 :   0.0909 0.0909 0.0000  plane waves:    1731
 k-point  8 :   0.1818 0.0909 0.0000  plane waves:    1731
 k-point  9 :   0.2727 0.0909 0.0000  plane waves:    1722
 k-point 10 :   0.3636 0.0909 0.0000  plane waves:    1720
 k-point 11 :   0.4545 0.0909 0.0000  plane waves:    1701
 k-point 12 :   0.0909 0.1818 0.0000  plane waves:    1731
 k-point 13 :   0.1818 0.1818 0.0000  plane waves:    1715
 k-point 14 :   0.2727 0.1818 0.0000  plane waves:    1718
 k-point 15 :   0.3636 0.1818 0.0000  plane waves:    1707
 k-point 16 :   0.4545 0.1818 0.0000  plane waves:    1710
 k-point 17 :   0.0909 0.2727 0.0000  plane waves:    1722
 k-point 18 :   0.1818 0.2727 0.0000  plane waves:    1718
 k-point 19 :   0.2727 0.2727 0.0000  plane waves:    1714
 k-point 20 :   0.3636 0.2727 0.0000  plane waves:    1702
 k-point 21 :   0.4545 0.2727 0.0000  plane waves:    1701
 k-point 22 :   0.0909 0.3636 0.0000  plane waves:    1720
 k-point 23 :   0.1818 0.3636 0.0000  plane waves:    1707
 k-point 24 :   0.2727 0.3636 0.0000  plane waves:    1702
 k-point 25 :   0.3636 0.3636 0.0000  plane waves:    1706
 k-point 26 :   0.4545 0.3636 0.0000  plane waves:    1691
 k-point 27 :   0.0909 0.4545 0.0000  plane waves:    1701
 k-point 28 :   0.1818 0.4545 0.0000  plane waves:    1710
 k-point 29 :   0.2727 0.4545 0.0000  plane waves:    1701
 k-point 30 :   0.3636 0.4545 0.0000  plane waves:    1691
 k-point 31 :   0.4545 0.4545 0.0000  plane waves:    1690
 k-point 32 :   0.0909 0.0909 0.0909  plane waves:    1719
 k-point 33 :   0.1818 0.0909 0.0909  plane waves:    1721
 k-point 34 :   0.2727 0.0909 0.0909  plane waves:    1720
 k-point 35 :   0.3636 0.0909 0.0909  plane waves:    1716
 k-point 36 :   0.4545 0.0909 0.0909  plane waves:    1716
 k-point 37 :   0.1818 0.1818 0.0909  plane waves:    1718
 k-point 38 :   0.2727 0.1818 0.0909  plane waves:    1710
 k-point 39 :   0.3636 0.1818 0.0909  plane waves:    1708
 k-point 40 :   0.4545 0.1818 0.0909  plane waves:    1709
 k-point 41 :   0.1818 0.2727 0.0909  plane waves:    1710
 k-point 42 :   0.2727 0.2727 0.0909  plane waves:    1709
 k-point 43 :   0.3636 0.2727 0.0909  plane waves:    1699
 k-point 44 :   0.4545 0.2727 0.0909  plane waves:    1705
 k-point 45 :   0.1818 0.3636 0.0909  plane waves:    1708
 k-point 46 :   0.2727 0.3636 0.0909  plane waves:    1699
 k-point 47 :   0.3636 0.3636 0.0909  plane waves:    1699
 k-point 48 :   0.4545 0.3636 0.0909  plane waves:    1703
 k-point 49 :   0.1818 0.4545 0.0909  plane waves:    1709
 k-point 50 :   0.2727 0.4545 0.0909  plane waves:    1705
 k-point 51 :   0.3636 0.4545 0.0909  plane waves:    1703
 k-point 52 :   0.4545 0.4545 0.0909  plane waves:    1696
 k-point 53 :   0.1818 0.1818 0.1818  plane waves:    1716
 k-point 54 :   0.2727 0.1818 0.1818  plane waves:    1709
 k-point 55 :   0.3636 0.1818 0.1818  plane waves:    1706
 k-point 56 :   0.4545 0.1818 0.1818  plane waves:    1711
 k-point 57 :   0.2727 0.2727 0.1818  plane waves:    1709
 k-point 58 :   0.3636 0.2727 0.1818  plane waves:    1711
 k-point 59 :   0.4545 0.2727 0.1818  plane waves:    1710
 k-point 60 :   0.2727 0.3636 0.1818  plane waves:    1711
 k-point 61 :   0.3636 0.3636 0.1818  plane waves:    1699
 k-point 62 :   0.4545 0.3636 0.1818  plane waves:    1708
 k-point 63 :   0.2727 0.4545 0.1818  plane waves:    1710
 k-point 64 :   0.3636 0.4545 0.1818  plane waves:    1708
 k-point 65 :   0.4545 0.4545 0.1818  plane waves:    1705
 k-point 66 :   0.2727 0.2727 0.2727  plane waves:    1701
 k-point 67 :   0.3636 0.2727 0.2727  plane waves:    1711
 k-point 68 :   0.4545 0.2727 0.2727  plane waves:    1700
 k-point 69 :   0.3636 0.3636 0.2727  plane waves:    1715
 k-point 70 :   0.4545 0.3636 0.2727  plane waves:    1712
 k-point 71 :   0.3636 0.4545 0.2727  plane waves:    1712
 k-point 72 :   0.4545 0.4545 0.2727  plane waves:    1707
 k-point 73 :   0.3636 0.3636 0.3636  plane waves:    1706
 k-point 74 :   0.4545 0.3636 0.3636  plane waves:    1705
 k-point 75 :   0.4545 0.4545 0.3636  plane waves:    1706
 k-point 76 :   0.4545 0.4545 0.4545  plane waves:    1700

 maximum and minimum number of plane-waves per node :       873      840

 maximum number of plane-waves:      1743
 maximum index in each direction: 
   IXMAX=    7   IYMAX=    7   IZMAX=    7
   IXMIN=   -7   IYMIN=   -7   IZMIN=   -7


 parallel 3D FFT for wavefunctions:
    minimum data exchange during FFTs selected (reduces bandwidth)
 parallel 3D FFT for charge:
    minimum data exchange during FFTs selected (reduces bandwidth)


 total amount of memory used by VASP MPI-rank0    82797. kBytes
=======================================================================

   base      :      30000. kBytes
   nonl-proj :      19297. kBytes
   fftplans  :       2273. kBytes
   grid      :       3643. kBytes
   one-center:         93. kBytes
   wavefun   :      27491. kBytes
 
     INWAV:  cpu time    0.0000: real time    0.0000
 Broyden mixing: mesh for mixing (old mesh)
   NGX = 15   NGY = 15   NGZ = 15
  (NGX  = 60   NGY  = 60   NGZ  = 60)
  gives a total of   3375 points

 initial charge density was supplied:
 charge density of overlapping atoms calculated
 number of electron      80.0000000 magnetization 
 keeping initial charge density in first step


--------------------------------------------------------------------------------------------------------


 Maximum index for augmentation-charges         2463 (set IRDMAX)


--------------------------------------------------------------------------------------------------------


 First call to EWALD:  gamma=   0.313
 Maximum number of real-space cells 3x 3x 3
 Maximum number of reciprocal cells 3x 3x 3

    FEWALD:  cpu time    0.0009: real time    0.0022


--------------------------------------- Iteration      1(   1)  ---------------------------------------


    POTLOK:  cpu time    0.0139: real time    0.0585
    SETDIJ:  cpu time    0.0027: real time    0.0027
     EDDAV:  cpu time    2.0544: real time    2.0547
       DOS:  cpu time    0.0020: real time    0.0020
    --------------------------------------------
      LOOP:  cpu time    2.0730: real time    2.1179

 eigenvalue-minimisations  :  7792
 total energy-change (2. order) : 0.3241687E+03  (-0.2435741E+04)
 number of electron      80.0000000 magnetization 
 augmentation part       80.0000000 magnetization 

 Free energy of the ion-electron system (eV)
  ---------------------------------------------------
  alpha Z        PSCENC =       190.43545681
  Ewald energy   TEWEN  =     -4393.89597749
  -Hartree energ DENC   =      -388.02694018
  -exchange      EXHF   =         0.00000000
  -V(xc)+E(xc)   XCENC  =       -25.69378162
  PAW double counting   =      3590.52942128    -3370.06040041
  entropy T*S    EENTRO =        -0.00270590
  eigenvalues    EBANDS =       687.10422731
  atomic energy  EATOM  =      4033.77937042
  Solvation  Ediel_sol  =         0.00000000
  ---------------------------------------------------
  free energy    TOTEN  =       324.16867022 eV

  energy without entropy =      324.17137612  energy(sigma->0) =      324.17002317


--------------------------------------------------------------------------------------------------------




--------------------------------------- Iteration      1(   2)  ---------------------------------------


     EDDAV:  cpu time    2.2080: real time    2.2083
       DOS:  cpu time    0.0020: real time    0.0020
    --------------------------------------------
      LOOP:  cpu time    2.2100: real time    2.2102

 eigenvalue-minimisations  :  8584
 total energy-change (2. order) :-0.3728412E+03  (-0.3541126E+03)
 number of electron      80.0000000 magnetization 
 augmentation part       80.0000000 magnetization 

 Free energy of the ion-electron system (eV)
  ---------------------------------------------------
  alpha Z        PSCENC =       190.43545681
  Ewald energy   TEWEN  =     -4393.89597749
  -Hartree energ DENC   =      -388.02694018
  -exchange      EXHF   =         0.00000000
  -V(xc)+E(xc)   XCENC  =       -25.69378162
  PAW double counting   =      3590.52942128    -3370.06040041
  entropy T*S    EENTRO =        -0.00016225
  eigenvalues    EBANDS =       314.26053075
  atomic energy  EATOM  =      4033.77937042
  Solvation  Ediel_sol  =         0.00000000
  ---------------------------------------------------
  free energy    TOTEN  =       -48.67248270 eV

  energy without entropy =      -48.67232045  energy(sigma->0) =      -48.67240157


--------------------------------------------------------------------------------------------------------




--------------------------------------- Iteration      1(   3)  ---------------------------------------


     EDDAV:  cpu time    2.3123: real time    2.3128
       DOS:  cpu time    0.0021: real time    0.0021
    --------------------------------------------
      LOOP:  cpu time    2.3144: real time    2.3149

 eigenvalue-minimisations  :  9112
 total energy-change (2. order) :-0.2875682E+02  (-0.2835521E+02)
 number of electron      80.0000000 magnetization 
 augmentation part       80.0000000 magnetization 

 Free energy of the ion-electron system (eV)
  ---------------------------------------------------
  alpha Z        PSCENC =       190.43545681
  Ewald energy   TEWEN  =     -4393.89597749
  -Hartree energ DENC   =      -388.02694018
  -exchange      EXHF   =         0.00000000
  -V(xc)+E(xc)   XCENC  =       -25.69378162
  PAW double counting   =      3590.52942128    -3370.06040041
  entropy T*S    EENTRO =        -0.00002492
  eigenvalues    EBANDS =       285.50357334
  atomic energy  EATOM  =      4033.77937042
  Solvation  Ediel_sol  =         0.00000000
  ---------------------------------------------------
  free energy    TOTEN  =       -77.42930277 eV

  energy without entropy =      -77.42927785  energy(sigma->0) =      -77.42929031


--------------------------------------------------------------------------------------------------------




--------------------------------------- Iteration      1(   4)  ---------------------------------------


     EDDAV:  cpu time    2.3938: real time    2.3941
       DOS:  cpu time    0.0021: real time    0.0021
    --------------------------------------------
      LOOP:  cpu time    2.3959: real time    2.3961

 eigenvalue-minimisations  :  9528
 total energy-change (2. order) :-0.8852454E+00  (-0.8758747E+00)
 number of electron      80.0000000 magnetization 
 augmentation part       80.0000000 magnetization 

 Free energy of the ion-electron system (eV)
  ---------------------------------------------------
  alpha Z        PSCENC =       190.43545681
  Ewald energy   TEWEN  =     -4393.89597749
  -Hartree energ DENC   =      -388.02694018
  -exchange      EXHF   =         0.00000000
  -V(xc)+E(xc)   XCENC  =       -25.69378162
  PAW double counting   =      3590.52942128    -3370.06040041
  entropy T*S    EENTRO =        -0.00002964
  eigenvalues    EBANDS =       284.61833266
  atomic energy  EATOM  =      4033.77937042
  Solvation  Ediel_sol  =         0.00000000
  ---------------------------------------------------
  free energy    TOTEN  =       -78.31454816 eV

  energy without entropy =      -78.31451853  energy(sigma->0) =      -78.31453334


--------------------------------------------------------------------------------------------------------




--------------------------------------- Iteration      1(   5)  ---------------------------------------


     EDDAV:  cpu time    2.3037: real time    2.3039
       DOS:  cpu time    0.0020: real time    0.0020
    CHARGE:  cpu time    0.1269: real time    0.1269
    MIXING:  cpu time    0.0007: real time    0.0007
    --------------------------------------------
      LOOP:  cpu time    2.4332: real time    2.4335

 eigenvalue-minimisations  :  9040
 total energy-change (2. order) :-0.2553122E-01  (-0.2550097E-01)
 number of electron      79.9999992 magnetization 
 augmentation part        3.5067004 magnetization 

 Broyden mixing:
  rms(total) = 0.35985E+01    rms(broyden)= 0.35969E+01
  rms(prec ) = 0.39275E+01
  weight for this iteration     100.00

 Free energy of the ion-electron system (eV)
  ---------------------------------------------------
  alpha Z        PSCENC =       190.43545681
  Ewald energy   TEWEN  =     -4393.89597749
  -Hartree energ DENC   =      -388.02694018
  -exchange      EXHF   =         0.00000000
  -V(xc)+E(xc)   XCENC  =       -25.69378162
  PAW double counting   =      3590.52942128    -3370.06040041
  entropy T*S    EENTRO =        -0.00002990
  eigenvalues    EBANDS =       284.59280170
  atomic energy  EATOM  =      4033.77937042
  Solvation  Ediel_sol  =         0.00000000
  ---------------------------------------------------
  free energy    TOTEN  =       -78.34007939 eV

  energy without entropy =      -78.34004949  energy(sigma->0) =      -78.34006444


--------------------------------------------------------------------------------------------------------




--------------------------------------- Iteration      1(   6)  ---------------------------------------


    POTLOK:  cpu time    0.0134: real time    0.0134
    SETDIJ:  cpu time    0.0027: real time    0.0027
     EDDAV:  cpu time    2.3541: real time    2.3544
       DOS:  cpu time    0.0012: real time    0.0012
    CHARGE:  cpu time    0.1295: real time    0.1295
    MIXING:  cpu time    0.0007: real time    0.0007
    --------------------------------------------
      LOOP:  cpu time    2.5018: real time    2.5020

 eigenvalue-minimisations  :  8760
 total energy-change (2. order) : 0.1245676E+01  (-0.1270637E+01)
 number of electron      79.9999999 magnetization 
 augmentation part        5.3507523 magnetization 

 Broyden mixing:
  rms(total) = 0.16255E+01    rms(broyden)= 0.16254E+01
  rms(prec ) = 0.18584E+01
  weight for this iteration     100.00

 eigenvalues of (default mixing * dielectric matrix)
  average eigenvalue GAMMA=   1.5159
  1.5159

 Free energy of the ion-electron system (eV)
  ---------------------------------------------------
  alpha Z        PSCENC =       190.43545681
  Ewald energy   TEWEN  =     -4393.89597749
  -Hartree energ DENC   =      -366.93859167
  -exchange      EXHF   =         0.00000000
  -V(xc)+E(xc)   XCENC  =       -25.02028786
  PAW double counting   =      5131.75650226    -4915.69062893
  entropy T*S    EENTRO =        -0.00000000
  eigenvalues    EBANDS =       268.47975300
  atomic energy  EATOM  =      4033.77937042
  Solvation  Ediel_sol  =         0.00000000
  ---------------------------------------------------
  free energy    TOTEN  =       -77.09440346 eV

  energy without entropy =      -77.09440346  energy(sigma->0) =      -77.09440346


--------------------------------------------------------------------------------------------------------




--------------------------------------- Iteration      1(   7)  ---------------------------------------


    POTLOK:  cpu time    0.0136: real time    0.0136
    SETDIJ:  cpu time    0.0027: real time    0.0027
     EDDAV:  cpu time    2.1692: real time    2.1695
       DOS:  cpu time    0.0018: real time    0.0018
    CHARGE:  cpu time    0.1305: real time    0.1305
    MIXING:  cpu time    0.0008: real time    0.0008
    --------------------------------------------
      LOOP:  cpu time    2.3186: real time    2.3189

 eigenvalue-minimisations  :  8288
 total energy-change (2. order) : 0.3067938E+00  (-0.7070483E+00)
 number of electron      79.9999994 magnetization 
 augmentation part        4.0308806 magnetization 

 Broyden mixing:
  rms(total) = 0.12520E+01    rms(broyden)= 0.12519E+01
  rms(prec ) = 0.14639E+01
  weight for this iteration     100.00

 eigenvalues of (default mixing * dielectric matrix)
  average eigenvalue GAMMA=   1.5023
  2.3936  0.6110

 Free energy of the ion-electron system (eV)
  ---------------------------------------------------
  alpha Z        PSCENC =       190.43545681
  Ewald energy   TEWEN  =     -4393.89597749
  -Hartree energ DENC   =      -377.39682828
  -exchange      EXHF   =         0.00000000
  -V(xc)+E(xc)   XCENC  =       -24.79536810
  PAW double counting   =      6424.93974730    -6212.10116790
  entropy T*S    EENTRO =        -0.00000065
  eigenvalues    EBANDS =       282.24715818
  atomic energy  EATOM  =      4033.77937042
  Solvation  Ediel_sol  =         0.00000000
  ---------------------------------------------------
  free energy    TOTEN  =       -76.78760970 eV

  energy without entropy =      -76.78760905  energy(sigma->0) =      -76.78760938


--------------------------------------------------------------------------------------------------------




--------------------------------------- Iteration      1(   8)  ---------------------------------------


    POTLOK:  cpu time    0.0135: real time    0.0135
    SETDIJ:  cpu time    0.0027: real time    0.0027
     EDDAV:  cpu time    2.1593: real time    2.1597
       DOS:  cpu time    0.0012: real time    0.0012
    CHARGE:  cpu time    0.1288: real time    0.1288
    MIXING:  cpu time    0.0008: real time    0.0008
    --------------------------------------------
      LOOP:  cpu time    2.3063: real time    2.3067

 eigenvalue-minimisations  :  8112
 total energy-change (2. order) : 0.3741641E+00  (-0.1427973E+00)
 number of electron      79.9999995 magnetization 
 augmentation part        4.5218582 magnetization 

 Broyden mixing:
  rms(total) = 0.84505E-01    rms(broyden)= 0.84449E-01
  rms(prec ) = 0.15726E+00
  weight for this iteration     100.00

 eigenvalues of (default mixing * dielectric matrix)
  average eigenvalue GAMMA=   1.2591
  2.3386  0.7847  0.6540

 Free energy of the ion-electron system (eV)
  ---------------------------------------------------
  alpha Z        PSCENC =       190.43545681
  Ewald energy   TEWEN  =     -4393.89597749
  -Hartree energ DENC   =      -369.51290792
  -exchange      EXHF   =         0.00000000
  -V(xc)+E(xc)   XCENC  =       -24.18303553
  PAW double counting   =      8180.42425757    -7970.72815955
  entropy T*S    EENTRO =        -0.00000000
  eigenvalues    EBANDS =       277.26755005
  atomic energy  EATOM  =      4033.77937042
  Solvation  Ediel_sol  =         0.00000000
  ---------------------------------------------------
  free energy    TOTEN  =       -76.41344564 eV

  energy without entropy =      -76.41344564  energy(sigma->0) =      -76.41344564


--------------------------------------------------------------------------------------------------------




--------------------------------------- Iteration      1(   9)  ---------------------------------------


    POTLOK:  cpu time    0.0136: real time    0.0136
    SETDIJ:  cpu time    0.0026: real time    0.0026
     EDDAV:  cpu time    2.5681: real time    2.5683
       DOS:  cpu time    0.0012: real time    0.0012
    CHARGE:  cpu time    0.1367: real time    0.1367
    MIXING:  cpu time    0.0008: real time    0.0008
    --------------------------------------------
      LOOP:  cpu time    2.7230: real time    2.7233

 eigenvalue-minimisations  : 10144
 total energy-change (2. order) : 0.6347164E-03  (-0.1538903E-01)
 number of electron      79.9999996 magnetization 
 augmentation part        4.6591940 magnetization 

 Broyden mixing:
  rms(total) = 0.36962E-01    rms(broyden)= 0.36925E-01
  rms(prec ) = 0.52470E-01
  weight for this iteration     100.00

 eigenvalues of (default mixing * dielectric matrix)
  average eigenvalue GAMMA=   1.1168
  2.3374  0.7410  0.7410  0.6478

 Free energy of the ion-electron system (eV)
  ---------------------------------------------------
  alpha Z        PSCENC =       190.43545681
  Ewald energy   TEWEN  =     -4393.89597749
  -Hartree energ DENC   =      -369.52253248
  -exchange      EXHF   =         0.00000000
  -V(xc)+E(xc)   XCENC  =       -24.13532966
  PAW double counting   =      8086.19795693    -7876.45394387
  entropy T*S    EENTRO =        -0.00000000
  eigenvalues    EBANDS =       277.18218841
  atomic energy  EATOM  =      4033.77937042
  Solvation  Ediel_sol  =         0.00000000
  ---------------------------------------------------
  free energy    TOTEN  =       -76.41281092 eV

  energy without entropy =      -76.41281092  energy(sigma->0) =      -76.41281092


--------------------------------------------------------------------------------------------------------




--------------------------------------- Iteration      1(  10)  ---------------------------------------


    POTLOK:  cpu time    0.0135: real time    0.0135
    SETDIJ:  cpu time    0.0028: real time    0.0028
     EDDAV:  cpu time    2.1783: real time    2.1785
       DOS:  cpu time    0.0012: real time    0.0012
    CHARGE:  cpu time    0.1309: real time    0.1309
    MIXING:  cpu time    0.0008: real time    0.0008
    --------------------------------------------
      LOOP:  cpu time    2.3274: real time    2.3276

 eigenvalue-minimisations  :  8192
 total energy-change (2. order) : 0.1180652E-04  (-0.7962368E-03)
 number of electron      79.9999996 magnetization 
 augmentation part        4.6317279 magnetization 

 Broyden mixing:
  rms(total) = 0.25227E-01    rms(broyden)= 0.25225E-01
  rms(prec ) = 0.31772E-01
  weight for this iteration     100.00

 eigenvalues of (default mixing * dielectric matrix)
  average eigenvalue GAMMA=   1.3716
  2.5453  1.9367  0.7219  0.8270  0.8270

 Free energy of the ion-electron system (eV)
  ---------------------------------------------------
  alpha Z        PSCENC =       190.43545681
  Ewald energy   TEWEN  =     -4393.89597749
  -Hartree energ DENC   =      -370.03765570
  -exchange      EXHF   =         0.00000000
  -V(xc)+E(xc)   XCENC  =       -24.10920436
  PAW double counting   =      8091.67756498    -7882.00051086
  entropy T*S    EENTRO =        -0.00000000
  eigenvalues    EBANDS =       277.73815709
  atomic energy  EATOM  =      4033.77937042
  Solvation  Ediel_sol  =         0.00000000
  ---------------------------------------------------
  free energy    TOTEN  =       -76.41279911 eV

  energy without entropy =      -76.41279911  energy(sigma->0) =      -76.41279911


--------------------------------------------------------------------------------------------------------




--------------------------------------- Iteration      1(  11)  ---------------------------------------


    POTLOK:  cpu time    0.0137: real time    0.0137
    SETDIJ:  cpu time    0.0026: real time    0.0026
     EDDAV:  cpu time    2.4248: real time    2.4250
       DOS:  cpu time    0.0012: real time    0.0012
    CHARGE:  cpu time    0.1299: real time    0.1301
    MIXING:  cpu time    0.0008: real time    0.0008
    --------------------------------------------
      LOOP:  cpu time    2.5730: real time    2.5735

 eigenvalue-minimisations  :  9456
 total energy-change (2. order) :-0.2384810E-03  (-0.1476680E-03)
 number of electron      79.9999996 magnetization 
 augmentation part        4.6432001 magnetization 

 Broyden mixing:
  rms(total) = 0.10672E-01    rms(broyden)= 0.10670E-01
  rms(prec ) = 0.12646E-01
  weight for this iteration     100.00

 eigenvalues of (default mixing * dielectric matrix)
  average eigenvalue GAMMA=   1.3546
  2.4237  2.2835  1.1299  0.7188  0.7859  0.7859

 Free energy of the ion-electron system (eV)
  ---------------------------------------------------
  alpha Z        PSCENC =       190.43545681
  Ewald energy   TEWEN  =     -4393.89597749
  -Hartree energ DENC   =      -370.31809751
  -exchange      EXHF   =         0.00000000
  -V(xc)+E(xc)   XCENC  =       -24.05932724
  PAW double counting   =      8110.07450660    -7900.46995858
  entropy T*S    EENTRO =        -0.00000000
  eigenvalues    EBANDS =       278.04098940
  atomic energy  EATOM  =      4033.77937042
  Solvation  Ediel_sol  =         0.00000000
  ---------------------------------------------------
  free energy    TOTEN  =       -76.41303759 eV

  energy without entropy =      -76.41303759  energy(sigma->0) =      -76.41303759


--------------------------------------------------------------------------------------------------------




--------------------------------------- Iteration      1(  12)  ---------------------------------------


    POTLOK:  cpu time    0.0136: real time    0.0136
    SETDIJ:  cpu time    0.0027: real time    0.0027
     EDDAV:  cpu time    2.2205: real time    2.2210
       DOS:  cpu time    0.0011: real time    0.0011
    CHARGE:  cpu time    0.1269: real time    0.1269
    MIXING:  cpu time    0.0008: real time    0.0008
    --------------------------------------------
      LOOP:  cpu time    2.3656: real time    2.3660

 eigenvalue-minimisations  :  8304
 total energy-change (2. order) :-0.7278564E-05  (-0.3261992E-04)
 number of electron      79.9999996 magnetization 
 augmentation part        4.6378345 magnetization 

 Broyden mixing:
  rms(total) = 0.33302E-02    rms(broyden)= 0.33299E-02
  rms(prec ) = 0.38087E-02
  weight for this iteration     100.00

 eigenvalues of (default mixing * dielectric matrix)
  average eigenvalue GAMMA=   1.3411
  2.5315  2.5315  1.2544  1.0050  0.7230  0.7230  0.6192

 Free energy of the ion-electron system (eV)
  ---------------------------------------------------
  alpha Z        PSCENC =       190.43545681
  Ewald energy   TEWEN  =     -4393.89597749
  -Hartree energ DENC   =      -370.43590556
  -exchange      EXHF   =         0.00000000
  -V(xc)+E(xc)   XCENC  =       -24.05777300
  PAW double counting   =      8094.04418069    -7884.41760522
  entropy T*S    EENTRO =        -0.00000000
  eigenvalues    EBANDS =       278.13520847
  atomic energy  EATOM  =      4033.77937042
  Solvation  Ediel_sol  =         0.00000000
  ---------------------------------------------------
  free energy    TOTEN  =       -76.41304487 eV

  energy without entropy =      -76.41304487  energy(sigma->0) =      -76.41304487


--------------------------------------------------------------------------------------------------------




--------------------------------------- Iteration      1(  13)  ---------------------------------------


    POTLOK:  cpu time    0.0136: real time    0.0136
    SETDIJ:  cpu time    0.0026: real time    0.0026
     EDDAV:  cpu time    2.6433: real time    2.6436
       DOS:  cpu time    0.0012: real time    0.0012
    CHARGE:  cpu time    0.1297: real time    0.1297
    MIXING:  cpu time    0.0009: real time    0.0009
    --------------------------------------------
      LOOP:  cpu time    2.7913: real time    2.7916

 eigenvalue-minimisations  : 10608
 total energy-change (2. order) :-0.9361346E-05  (-0.2654874E-05)
 number of electron      79.9999996 magnetization 
 augmentation part        4.6368927 magnetization 

 Broyden mixing:
  rms(total) = 0.31544E-02    rms(broyden)= 0.31544E-02
  rms(prec ) = 0.36402E-02
  weight for this iteration     100.00

 eigenvalues of (default mixing * dielectric matrix)
  average eigenvalue GAMMA=   1.3868
  2.6282  2.2876  1.5170  1.5170  0.9434  0.6941  0.7535  0.7535

 Free energy of the ion-electron system (eV)
  ---------------------------------------------------
  alpha Z        PSCENC =       190.43545681
  Ewald energy   TEWEN  =     -4393.89597749
  -Hartree energ DENC   =      -370.47298089
  -exchange      EXHF   =         0.00000000
  -V(xc)+E(xc)   XCENC  =       -24.05463511
  PAW double counting   =      8090.91387326    -7881.28412069
  entropy T*S    EENTRO =        -0.00000000
  eigenvalues    EBANDS =       278.16595946
  atomic energy  EATOM  =      4033.77937042
  Solvation  Ediel_sol  =         0.00000000
  ---------------------------------------------------
  free energy    TOTEN  =       -76.41305423 eV

  energy without entropy =      -76.41305423  energy(sigma->0) =      -76.41305423


--------------------------------------------------------------------------------------------------------




--------------------------------------- Iteration      1(  14)  ---------------------------------------


    POTLOK:  cpu time    0.0133: real time    0.0133
    SETDIJ:  cpu time    0.0026: real time    0.0026
     EDDAV:  cpu time    2.2578: real time    2.2580
       DOS:  cpu time    0.0012: real time    0.0012
    CHARGE:  cpu time    0.1322: real time    0.1322
    MIXING:  cpu time    0.0009: real time    0.0009
    --------------------------------------------
      LOOP:  cpu time    2.4081: real time    2.4083

 eigenvalue-minimisations  :  8600
 total energy-change (2. order) : 0.6516675E-06  (-0.1166357E-05)
 number of electron      79.9999996 magnetization 
 augmentation part        4.6384697 magnetization 

 Broyden mixing:
  rms(total) = 0.89691E-03    rms(broyden)= 0.89686E-03
  rms(prec ) = 0.97016E-03
  weight for this iteration     100.00

 eigenvalues of (default mixing * dielectric matrix)
  average eigenvalue GAMMA=   1.4403
  2.7548  2.4808  1.9964  1.5394  1.0178  1.0178  0.7365  0.7365  0.6825

 Free energy of the ion-electron system (eV)
  ---------------------------------------------------
  alpha Z        PSCENC =       190.43545681
  Ewald energy   TEWEN  =     -4393.89597749
  -Hartree energ DENC   =      -370.45773727
  -exchange      EXHF   =         0.00000000
  -V(xc)+E(xc)   XCENC  =       -24.05320296
  PAW double counting   =      8094.29548894    -7884.67085347
  entropy T*S    EENTRO =        -0.00000000
  eigenvalues    EBANDS =       278.15440144
  atomic energy  EATOM  =      4033.77937042
  Solvation  Ediel_sol  =         0.00000000
  ---------------------------------------------------
  free energy    TOTEN  =       -76.41305358 eV

  energy without entropy =      -76.41305358  energy(sigma->0) =      -76.41305358


--------------------------------------------------------------------------------------------------------




--------------------------------------- Iteration      1(  15)  ---------------------------------------


    POTLOK:  cpu time    0.0135: real time    0.0135
    SETDIJ:  cpu time    0.0027: real time    0.0027
     EDDAV:  cpu time    1.6542: real time    1.6545
       DOS:  cpu time    0.0012: real time    0.0012
    --------------------------------------------
      LOOP:  cpu time    1.6716: real time    1.6718

 eigenvalue-minimisations  :  5424
 total energy-change (2. order) : 0.6786504E-06  (-0.8390742E-07)
 number of electron      79.9999996 magnetization 
 augmentation part        4.6384697 magnetization 

 Free energy of the ion-electron system (eV)
  ---------------------------------------------------
  alpha Z        PSCENC =       190.43545681
  Ewald energy   TEWEN  =     -4393.89597749
  -Hartree energ DENC   =      -370.46210813
  -exchange      EXHF   =         0.00000000
  -V(xc)+E(xc)   XCENC  =       -24.05301081
  PAW double counting   =      8093.66927040    -7884.04250993
  entropy T*S    EENTRO =        -0.00000000
  eigenvalues    EBANDS =       278.15645582
  atomic energy  EATOM  =      4033.77937042
  Solvation  Ediel_sol  =         0.00000000
  ---------------------------------------------------
  free energy    TOTEN  =       -76.41305290 eV

  energy without entropy =      -76.41305290  energy(sigma->0) =      -76.41305290


--------------------------------------------------------------------------------------------------------




 average (electrostatic) potential at core
  the test charge radii are     1.2511  0.9698
  (the norm of the test charge is              1.0000)
       1 -58.8813       2 -58.8813       3 -58.8813       4 -58.8813       5 -83.7133
       6 -83.7133       7 -83.7133       8 -83.7133       9 -83.7133      10 -83.7133
      11 -83.7133      12 -83.7133
 
 
 
 E-fermi :   8.8566     XC(G=0): -11.7342     alpha+bet :-14.9707


 k-point     1 :       0.0000    0.0000    0.0000
  band No.  band energies     occupation 
      1      -7.4345      2.00000
      2      -5.9776      2.00000
      3      -5.9776      2.00000
      4      -5.9776      2.00000
      5      -3.3109      2.00000
      6      -3.3109      2.00000
      7      -3.3109      2.00000
      8      -2.3430      2.00000
      9       1.9534      2.00000
     10       1.9534      2.00000
     11       1.9534      2.00000
     12       3.4631      2.00000
     13       3.4631      2.00000
     14       3.4631      2.00000
     15       3.7399      2.00000
     16       3.7399      2.00000
     17       3.7399      2.00000
     18       4.0091      2.00000
     19       4.2248      2.00000
     20       4.2248      2.00000
     21       4.2849      2.00000
     22       4.2849      2.00000
     23       4.5588      2.00000
     24       4.5588      2.00000
     25       4.5588      2.00000
     26       6.1402      2.00000
     27       6.1402      2.00000
     28       6.1402      2.00000
     29       7.0346      2.00000
     30       7.0346      2.00000
     31       7.0346      2.00000
     32       7.8525      2.00000
     33       7.8525      2.00000
     34       8.0033      2.00000
     35       8.0033      2.00000
     36       8.0033      2.00000
     37       8.0687      2.00000
     38       8.0687      2.00000
     39       8.0687      2.00000
     40       8.3923      2.00000
     41       9.2163      0.00000
     42      11.0278      0.00000
     43      11.0278      0.00000
     44      11.0278      0.00000
     45      11.0986      0.00000
     46      11.0986      0.00000
     47      11.0986      0.00000
     48      13.2860      0.00000

 k-point     2 :       0.0909    0.0000    0.0000
  band No.  band energies     occupation 
      1      -7.4074      2.00000
      2      -6.0064      2.00000
      3      -5.9672      2.00000
      4      -5.9663      2.00000
      5      -3.3256      2.00000
      6      -3.3144      2.00000
      7      -3.3115      2.00000
      8      -2.3917      2.00000
      9       1.9623      2.00000
     10       1.9717      2.00000
     11       1.9861      2.00000
     12       3.3062      2.00000
     13       3.3611      2.00000
     14       3.4154      2.00000
     15       3.6793      2.00000
     16       3.7542      2.00000
     17       3.7945      2.00000
     18       4.0077      2.00000
     19       4.1792      2.00000
     20       4.2046      2.00000
     21       4.2579      2.00000
     22       4.2748      2.00000
     23       4.6344      2.00000
     24       4.7417      2.00000
     25       4.7570      2.00000
     26       6.0260      2.00000
     27       6.0285      2.00000
     28       6.2681      2.00000
     29       7.0636      2.00000
     30       7.1369      2.00000
     31       7.1577      2.00000
     32       7.7980      2.00000
     33       7.8635      2.00000
     34       7.9644      2.00000
     35       8.0007      2.00000
     36       8.0163      2.00000
     37       8.0571      2.00000
     38       8.0579      2.00000
     39       8.1027      2.00000
     40       8.4026      2.00000
     41       9.3188      0.00000
     42      10.9507      0.00000
     43      10.9508      0.00000
     44      11.0305      0.00000
     45      11.0716      0.00000
     46      11.1589      0.00000
     47      11.1764      0.00000
     48      13.2285      0.00000

 k-point     3 :       0.1818    0.0000    0.0000
  band No.  band energies     occupation 
      1      -7.3274      2.00000
      2      -6.0919      2.00000
      3      -5.9384      2.00000
      4      -5.9356      2.00000
      5      -3.3601      2.00000
      6      -3.3250      2.00000
      7      -3.3103      2.00000
      8      -2.5235      2.00000
      9       1.9807      2.00000
     10       2.0050      2.00000
     11       2.0496      2.00000
     12       3.0491      2.00000
     13       3.1074      2.00000
     14       3.4228      2.00000
     15       3.5331      2.00000
     16       3.7711      2.00000
     17       3.8533      2.00000
     18       3.9785      2.00000
     19       4.1062      2.00000
     20       4.2084      2.00000
     21       4.2416      2.00000
     22       4.3469      2.00000
     23       4.8268      2.00000
     24       5.0351      2.00000
     25       5.1383      2.00000
     26       5.7885      2.00000
     27       5.8159      2.00000
     28       6.5244      2.00000
     29       7.1481      2.00000
     30       7.3179      2.00000
     31       7.4147      2.00000
     32       7.6672      2.00000
     33       7.8325      2.00000
     34       7.8918      2.00000
     35       7.9991      2.00000
     36       8.0053      2.00000
     37       8.0421      2.00000
     38       8.0920      2.00000
     39       8.2236      2.00000
     40       8.4300      2.00000
     41       9.5892      0.00000
     42      10.7994      0.00000
     43      10.8905      0.00000
     44      11.0246      0.00000
     45      11.0514      0.00000
     46      11.1960      0.00000
     47      11.3201      0.00000
     48      12.7925      0.00000

 k-point     4 :       0.2727    0.0000    0.0000
  band No.  band energies     occupation 
      1      -7.1991      2.00000
      2      -6.2308      2.00000
      3      -5.8990      2.00000
      4      -5.8945      2.00000
      5      -3.3938      2.00000
      6      -3.3424      2.00000
      7      -3.2983      2.00000
      8      -2.7041      2.00000
      9       1.9878      2.00000
     10       2.0128      2.00000
     11       2.0886      2.00000
     12       2.8018      2.00000
     13       2.8737      2.00000
     14       3.3670      2.00000
     15       3.5969      2.00000
     16       3.7935      2.00000
     17       3.8762      2.00000
     18       3.9311      2.00000
     19       4.0936      2.00000
     20       4.2272      2.00000
     21       4.2588      2.00000
     22       4.4756      2.00000
     23       5.0475      2.00000
     24       5.3133      2.00000
     25       5.3412      2.00000
     26       5.5312      2.00000
     27       5.7993      2.00000
     28       6.6002      2.00000
     29       7.2509      2.00000
     30       7.4532      2.00000
     31       7.6191      2.00000
     32       7.6353      2.00000
     33       7.6899      2.00000
     34       7.9258      2.00000
     35       7.9269      2.00000
     36       8.0274      2.00000
     37       8.0640      2.00000
     38       8.2120      2.00000
     39       8.4076      2.00000
     40       8.4595      2.00000
     41       9.9476      0.00000
     42      10.6186      0.00000
     43      10.9465      0.00000
     44      10.9966      0.00000
     45      11.1254      0.00000
     46      11.1683      0.00000
     47      11.4678      0.00000
     48      12.2079      0.00000

 k-point     5 :       0.3636    0.0000    0.0000
  band No.  band energies     occupation 
      1      -7.0300      2.00000
      2      -6.4123      2.00000
      3      -5.8604      2.00000
      4      -5.8560      2.00000
      5      -3.4109      2.00000
      6      -3.3653      2.00000
      7      -3.2615      2.00000
      8      -2.8942      2.00000
      9       1.9707      2.00000
     10       1.9872      2.00000
     11       2.1150      2.00000
     12       2.5231      2.00000
     13       2.8332      2.00000
     14       3.2024      2.00000
     15       3.8273      2.00000
     16       3.8436      2.00000
     17       3.8946      2.00000
     18       3.9306      2.00000
     19       4.0289      2.00000
     20       4.3124      2.00000
     21       4.3563      2.00000
     22       4.6345      2.00000
     23       5.1082      2.00000
     24       5.2084      2.00000
     25       5.3278      2.00000
     26       5.6549      2.00000
     27       6.0623      2.00000
     28       6.3122      2.00000
[...]
     42      10.8853      0.00000
     43      10.9224      0.00000
     44      11.0212      0.00000
     45      11.4942      0.00000
     46      11.5924      0.00000
     47      11.6811      0.00000
     48      11.7698      0.00000

 k-point    73 :       0.3636    0.3636    0.3636
  band No.  band energies     occupation 
      1      -6.3495      2.00000
      2      -6.0002      2.00000
      3      -5.9900      2.00000
      4      -5.9900      2.00000
      5      -3.7626      2.00000
      6      -3.7626      2.00000
      7      -3.6372      2.00000
      8      -3.6090      2.00000
      9       1.8745      2.00000
     10       2.1696      2.00000
     11       2.1696      2.00000
     12       2.3389      2.00000
     13       2.8724      2.00000
     14       2.8724      2.00000
     15       3.4430      2.00000
     16       3.4491      2.00000
     17       3.4491      2.00000
     18       4.0369      2.00000
     19       4.0369      2.00000
     20       4.2592      2.00000
     21       5.6771      2.00000
     22       5.8240      2.00000
     23       5.8240      2.00000
     24       6.0197      2.00000
     25       6.0197      2.00000
     26       6.3666      2.00000
     27       6.6034      2.00000
     28       6.6034      2.00000
     29       7.2349      2.00000
     30       7.2349      2.00000
     31       7.3376      2.00000
     32       7.4413      2.00000
     33       7.4413      2.00000
     34       7.7089      2.00000
     35       7.8040      2.00000
     36       7.8040      2.00000
     37       7.9599      2.00000
     38       8.2617      2.00000
     39       8.2617      2.00000
     40       8.3133      2.00000
     41      10.5345      0.00000
     42      10.9861      0.00000
     43      11.0671      0.00000
     44      11.0671      0.00000
     45      11.4912      0.00000
     46      11.4912      0.00000
     47      11.7467      0.00000
     48      11.9021      0.00000

 k-point    74 :       0.4545    0.3636    0.3636
  band No.  band energies     occupation 
      1      -6.2145      2.00000
      2      -6.0900      2.00000
      3      -5.9623      2.00000
      4      -5.9596      2.00000
      5      -3.7945      2.00000
      6      -3.7880      2.00000
      7      -3.7039      2.00000
      8      -3.6838      2.00000
      9       1.9428      2.00000
     10       2.0527      2.00000
     11       2.2274      2.00000
     12       2.2695      2.00000
     13       2.9018      2.00000
     14       2.9487      2.00000
     15       3.3668      2.00000
     16       3.4048      2.00000
     17       3.6586      2.00000
     18       3.8987      2.00000
     19       4.0482      2.00000
     20       4.0941      2.00000
     21       5.8859      2.00000
     22       5.9023      2.00000
     23       6.0571      2.00000
     24       6.1547      2.00000
     25       6.1992      2.00000
     26       6.3607      2.00000
     27       6.5375      2.00000
     28       6.7344      2.00000
     29       7.1644      2.00000
     30       7.2495      2.00000
     31       7.3345      2.00000
     32       7.4058      2.00000
     33       7.4237      2.00000
     34       7.5462      2.00000
     35       7.6938      2.00000
     36       7.7061      2.00000
     37       7.9963      2.00000
     38       8.1214      2.00000
     39       8.2357      2.00000
     40       8.2568      2.00000
     41      10.6346      0.00000
     42      10.8088      0.00000
     43      10.9878      0.00000
     44      11.0023      0.00000
     45      11.5938      0.00000
     46      11.6494      0.00000
     47      11.9087      0.00000
     48      11.9545      0.00000

 k-point    75 :       0.4545    0.4545    0.3636
  band No.  band energies     occupation 
      1      -6.1062      2.00000
      2      -6.0182      2.00000
      3      -6.0156      2.00000
      4      -5.9712      2.00000
      5      -3.8233      2.00000
      6      -3.8149      2.00000
      7      -3.7814      2.00000
      8      -3.7647      2.00000
      9       2.0124      2.00000
     10       2.0984      2.00000
     11       2.1312      2.00000
     12       2.1855      2.00000
     13       3.0515      2.00000
     14       3.1061      2.00000
     15       3.2918      2.00000
     16       3.3395      2.00000
     17       3.7076      2.00000
     18       3.8668      2.00000
     19       3.8885      2.00000
     20       3.9468      2.00000
     21       6.1495      2.00000
     22       6.1721      2.00000
     23       6.2380      2.00000
     24       6.3188      2.00000
     25       6.3864      2.00000
     26       6.4168      2.00000
     27       6.5724      2.00000
     28       6.7087      2.00000
     29       7.1478      2.00000
     30       7.2397      2.00000
     31       7.2899      2.00000
     32       7.3228      2.00000
     33       7.3512      2.00000
     34       7.4717      2.00000
     35       7.5035      2.00000
     36       7.5728      2.00000
     37       7.9955      2.00000
     38       8.0835      2.00000
     39       8.1005      2.00000
     40       8.1397      2.00000
     41      10.6884      0.00000
     42      10.8038      0.00000
     43      10.8227      0.00000
     44      10.8777      0.00000
     45      11.7619      0.00000
     46      11.8075      0.00000
     47      11.9144      0.00000
     48      11.9553      0.00000

 k-point    76 :       0.4545    0.4545    0.4545
  band No.  band energies     occupation 
      1      -6.0306      2.00000
      2      -5.9837      2.00000
      3      -5.9822      2.00000
      4      -5.9822      2.00000
      5      -3.8646      2.00000
      6      -3.8646      2.00000
      7      -3.8502      2.00000
      8      -3.8393      2.00000
      9       2.0609      2.00000
     10       2.1168      2.00000
     11       2.1168      2.00000
     12       2.1328      2.00000
     13       3.2252      2.00000
     14       3.2252      2.00000
     15       3.3864      2.00000
     16       3.3864      2.00000
     17       3.5772      2.00000
     18       3.6901      2.00000
     19       3.7437      2.00000
     20       3.7437      2.00000
     21       6.4857      2.00000
     22       6.4857      2.00000
     23       6.5220      2.00000
     24       6.5564      2.00000
     25       6.5564      2.00000
     26       6.7485      2.00000
     27       6.7585      2.00000
     28       6.7585      2.00000
     29       7.0779      2.00000
     30       7.0779      2.00000
     31       7.1062      2.00000
     32       7.2018      2.00000
     33       7.2018      2.00000
     34       7.2939      2.00000
     35       7.3056      2.00000
     36       7.3056      2.00000
     37       7.9461      2.00000
     38       7.9989      2.00000
     39       7.9989      2.00000
     40       8.0055      2.00000
     41      10.6856      0.00000
     42      10.7455      0.00000
     43      10.7543      0.00000
     44      10.7543      0.00000
     45      11.9263      0.00000
     46      11.9263      0.00000
     47      11.9914      0.00000
     48      11.9918      0.00000


--------------------------------------------------------------------------------------------------------


 soft charge-density along one line, spin component           1
         0         1         2         3         4         5         6         7         8         9
 total charge-density along one line
 
 pseudopotential strength for first ion, spin component:           1
 -1.012   0.044   0.015  -0.044   0.052  -1.287   0.042   0.014
  0.044  -1.012  -0.052  -0.044  -0.013   0.042  -1.287  -0.050
  0.015  -0.052  -1.065  -0.037   0.000   0.014  -0.050  -1.339
 -0.044  -0.044  -0.037  -1.012   0.039  -0.042  -0.042  -0.036
  0.052  -0.013   0.000   0.039  -1.065   0.050  -0.013   0.000
 -1.287   0.042   0.014  -0.042   0.050  -1.531   0.041   0.014
  0.042  -1.287  -0.050  -0.042  -0.013   0.041  -1.531  -0.049
  0.014  -0.050  -1.339  -0.036   0.000   0.014  -0.049  -1.580
 -0.042  -0.042  -0.036  -1.287   0.037  -0.041  -0.041  -0.035
  0.050  -0.013   0.000   0.037  -1.339   0.048  -0.013   0.000
  0.014   0.014   0.000  -0.014   0.000   0.014   0.014   0.000
 -0.025  -0.025  -0.000   0.025  -0.000  -0.025  -0.025  -0.000
 -0.000  -0.000   0.000  -0.000   0.000  -0.000  -0.000   0.000
 -0.000  -0.000  -0.000  -0.000   0.000  -0.000  -0.000  -0.000
 -0.000  -0.000   0.000  -0.000  -0.000  -0.000  -0.000   0.000
 -0.000  -0.000   0.000  -0.000   0.000  -0.000  -0.000   0.000
 -0.000  -0.000  -0.000  -0.000   0.000  -0.000  -0.000  -0.000
 -0.000  -0.000   0.000  -0.000  -0.000  -0.000  -0.000   0.000
 total augmentation occupancy for first ion, spin component:           1
  2.751  -0.189   0.121   0.189  -1.130  -2.418   0.567  -0.258  -0.546   1.959  -0.206  -0.014   0.000   0.000   0.000   0.000
 -0.189   2.751   0.918   0.189   0.670   0.546  -2.418  -1.568  -0.567  -1.203  -0.206  -0.014   0.000   0.000   0.000   0.000
  0.121   0.918   3.502   1.039   0.000  -0.263  -1.556  -4.044  -1.818  -0.018  -0.000  -0.000   0.000   0.000   0.000   0.000
  0.189   0.189   1.039   2.751  -0.460  -0.567  -0.546  -1.826  -2.418   0.757   0.206   0.014   0.000   0.000   0.000   0.000
 -1.130   0.670   0.000  -0.460   3.502   1.948  -1.201   0.018   0.746  -4.044   0.000   0.000   0.000   0.000   0.000   0.000
 -2.418   0.546  -0.263  -0.567   1.948   3.608  -0.807   0.355   0.807  -2.524   0.186   0.012   0.000   0.000   0.000   0.000
  0.567  -2.418  -1.556  -0.546  -1.201  -0.807   3.608   2.008   0.807   1.569   0.186   0.012   0.000   0.000   0.000   0.000
 -0.258  -1.568  -4.044  -1.826   0.018   0.355   2.008   5.841   2.363   0.000   0.000   0.000   0.000   0.000   0.000   0.000
 -0.546  -0.567  -1.818  -2.418   0.746   0.807   0.807   2.363   3.608  -0.955  -0.186  -0.012   0.000   0.000   0.000   0.000
  1.959  -1.203  -0.018   0.757  -4.044  -2.524   1.569   0.000  -0.955   5.841   0.000  -0.000   0.000   0.000   0.000   0.000
 -0.206  -0.206  -0.000   0.206   0.000   0.186   0.186   0.000  -0.186   0.000   1.517   0.079   0.000   0.000   0.000   0.000
 -0.014  -0.014  -0.000   0.014   0.000   0.012   0.012   0.000  -0.012  -0.000   0.079   0.006   0.000   0.000   0.000   0.000
  0.000   0.000   0.000   0.000   0.000   0.000   0.000   0.000   0.000   0.000   0.000   0.000   0.380   0.014   0.014  -0.005
  0.000   0.000   0.000   0.000   0.000   0.000   0.000   0.000   0.000   0.000   0.000   0.000   0.014   0.380  -0.014  -0.000
  0.000   0.000   0.000   0.000   0.000   0.000   0.000   0.000   0.000   0.000   0.000   0.000   0.014  -0.014   0.380  -0.000
  0.000   0.000   0.000   0.000   0.000   0.000   0.000   0.000   0.000   0.000   0.000   0.000  -0.005  -0.000  -0.000   0.000
  0.000   0.000   0.000   0.000   0.000   0.000   0.000   0.000   0.000   0.000   0.000   0.000  -0.000  -0.005   0.000   0.000
  0.000   0.000   0.000   0.000   0.000   0.000   0.000   0.000   0.000   0.000   0.000   0.000  -0.000   0.000  -0.005   0.000


------------------------ aborting loop because EDIFF is reached ----------------------------------------


 


 total charge     
 
# of ion       s       p       d       tot
------------------------------------------
    1        0.524   0.795   6.828   8.148
    2        0.523   0.799   6.791   8.112
    3        0.525   0.798   6.805   8.128
    4        0.532   0.805   6.813   8.150
    5        1.348   2.304   0.000   3.652
    6        1.349   2.304   0.000   3.653
    7        1.346   2.305   0.000   3.651
    8        1.338   2.309   0.000   3.647
    9        1.338   2.309   0.000   3.647
   10        1.346   2.305   0.000   3.651
   11        1.349   2.304   0.000   3.653
   12        1.348   2.304   0.000   3.652
--------------------------------------------------
tot         12.866  21.643  27.236  61.745
 
    CHARGE:  cpu time    0.1290: real time    0.1290
    FORLOC:  cpu time    0.0020: real time    0.0020
    FORNL :  cpu time    0.6099: real time    0.6099
    STRESS:  cpu time    0.7640: real time    0.7642
    FORCOR:  cpu time    0.0148: real time    0.0148
    FORHAR:  cpu time    0.0042: real time    0.0042
    MIXING:  cpu time    0.0010: real time    0.0010
    OFIELD:  cpu time    0.0000: real time    0.0000

  FORCE on cell =-STRESS in cart. coord.  units (eV):
  Direction    XX          YY          ZZ          XY          YZ          ZX
  --------------------------------------------------------------------------------------
  Alpha Z   190.43546   190.43546   190.43546
  Ewald   -1464.63400 -1464.63400 -1464.63400    -0.00000     0.00000    -0.00000
  Hartree   123.48617   123.48617   123.48617    -0.00000    -0.00000    -0.00000
  E(xc)    -323.57376  -323.57376  -323.57376    -0.00000    -0.00000    -0.00000
  Local    -221.65082  -221.65082  -221.65082    -0.00000    -0.00000    -0.00000
  n-local   617.07615   616.43222   617.59770    -0.14951    -0.24213    -0.14785
  augment    44.21594    44.21594    44.21594    -0.00000     0.00000    -0.00000
  Kinetic  1034.85838  1032.93451  1028.37130    -1.14926    -0.15327    -0.46549
  Fock        0.00000     0.00000     0.00000     0.00000     0.00000     0.00000
  -------------------------------------------------------------------------------------
  Total      -2.63093    -2.63093    -2.63093    -0.00000     0.00000    -0.00000
  in kB     -23.29872   -23.29872   -23.29872    -0.00000     0.00000    -0.00000
  external pressure =      -23.30 kB  Pullay stress =        0.00 kB


 VOLUME and BASIS-vectors are now :
 -----------------------------------------------------------------------------
  energy-cutoff  :      258.69
  volume of cell :      180.92
      direct lattice vectors                 reciprocal lattice vectors
     5.655822000  0.000000000  0.000000000     0.176808959  0.000000000  0.000000000
     0.000000000  5.655822000  0.000000000     0.000000000  0.176808959  0.000000000
     0.000000000  0.000000000  5.655822000     0.000000000  0.000000000  0.176808959

  length of vectors
     5.655822000  5.655822000  5.655822000     0.176808959  0.176808959  0.176808959


 FORCES acting on ions
    electron-ion (+dipol)            ewald-force                    non-local-force                 convergence-correction
 -----------------------------------------------------------------------------------------------
   -.515E-14 0.449E-13 0.104E-12   -.355E-14 0.213E-13 0.551E-13   -.583E-23 -.818E-24 -.251E-23   -.478E-13 0.244E-13 0.164E-13
   -.734E-12 0.486E-12 -.464E-12   0.355E-14 0.142E-13 -.533E-13   -.318E-23 0.219E-23 -.192E-23   0.514E-13 0.133E-13 -.414E-13
   0.211E-12 -.200E-12 -.304E-12   0.142E-13 -.462E-13 -.142E-13   -.193E-23 -.141E-23 -.150E-23   0.396E-13 -.159E-13 0.276E-13
   -.772E-13 -.946E-13 -.539E-13   0.000E+00 -.320E-13 0.178E-13   -.241E-23 -.701E-24 -.220E-23   -.395E-13 -.383E-14 -.330E-13
   0.440E+01 -.440E+01 0.440E+01   -.602E+01 0.602E+01 -.602E+01   0.156E+01 -.156E+01 0.156E+01   0.231E-03 -.231E-03 0.231E-03
   -.440E+01 0.440E+01 0.440E+01   0.602E+01 -.602E+01 -.602E+01   -.156E+01 0.156E+01 0.156E+01   -.231E-03 0.231E-03 0.231E-03
   0.440E+01 0.440E+01 -.440E+01   -.602E+01 -.602E+01 0.602E+01   0.156E+01 0.156E+01 -.156E+01   0.231E-03 0.231E-03 -.231E-03
   -.440E+01 -.440E+01 -.440E+01   0.602E+01 0.602E+01 0.602E+01   -.156E+01 -.156E+01 -.156E+01   -.231E-03 -.231E-03 -.231E-03
   0.440E+01 0.440E+01 0.440E+01   -.602E+01 -.602E+01 -.602E+01   0.156E+01 0.156E+01 0.156E+01   0.231E-03 0.231E-03 0.231E-03
   -.440E+01 -.440E+01 0.440E+01   0.602E+01 0.602E+01 -.602E+01   -.156E+01 -.156E+01 0.156E+01   -.231E-03 -.231E-03 0.231E-03
   0.440E+01 -.440E+01 -.440E+01   -.602E+01 0.602E+01 0.602E+01   0.156E+01 -.156E+01 -.156E+01   0.231E-03 -.231E-03 -.231E-03
   -.440E+01 0.440E+01 -.440E+01   0.602E+01 -.602E+01 0.602E+01   -.156E+01 0.156E+01 -.156E+01   -.231E-03 0.231E-03 -.231E-03
 -----------------------------------------------------------------------------------------------
   -.291E-12 0.285E-11 -.798E-12   0.888E-15 -.888E-14 -.160E-13   0.000E+00 0.000E+00 0.000E+00   -.633E-14 0.911E-14 -.616E-13
 
 
 POSITION                                       TOTAL-FORCE (eV/Angst)
 -----------------------------------------------------------------------------------
      0.00000      2.82791      2.82791        -0.000000      0.000000      0.000000
      2.82791      2.82791      0.00000         0.000000      0.000000     -0.000000
      2.82791      0.00000      2.82791        -0.000000      0.000000      0.000000
      0.00000      0.00000      0.00000         0.000000      0.000000      0.000000
      2.18993      0.63798      5.01784        -0.054649      0.054649     -0.054649
      0.63798      5.01784      2.18993         0.054649     -0.054649     -0.054649
      5.01784      2.18993      0.63798        -0.054649     -0.054649      0.054649
      3.46589      3.46589      3.46589         0.054649      0.054649      0.054649
      2.18993      2.18993      2.18993        -0.054649     -0.054649     -0.054649
      0.63798      3.46589      5.01784         0.054649      0.054649     -0.054649
      5.01784      0.63798      3.46589        -0.054649      0.054649      0.054649
      3.46589      5.01784      0.63798         0.054649     -0.054649      0.054649
 -----------------------------------------------------------------------------------
    total drift:                               -0.000000      0.000000     -0.000000


--------------------------------------------------------------------------------------------------------



  FREE ENERGIE OF THE ION-ELECTRON SYSTEM (eV)
  ---------------------------------------------------
  free  energy   TOTEN  =       -76.41305290 eV

  energy  without entropy=      -76.41305290  energy(sigma->0) =      -76.41305290
 


--------------------------------------------------------------------------------------------------------


    POTLOK:  cpu time    0.0150: real time    0.0150


--------------------------------------------------------------------------------------------------------


 writing wavefunctions
     LOOP+:  cpu time   37.2212: real time   37.6639
    4ORBIT:  cpu time    0.0000: real time    0.0000
 


 total charge     
 
# of ion       s       p       d       tot
------------------------------------------
    1        0.524   0.795   6.828   8.148
    2        0.523   0.799   6.791   8.112
    3        0.525   0.798   6.805   8.128
    4        0.532   0.805   6.813   8.150
    5        1.348   2.304   0.000   3.652
    6        1.349   2.304   0.000   3.653
    7        1.346   2.305   0.000   3.651
    8        1.338   2.309   0.000   3.647
    9        1.338   2.309   0.000   3.647
   10        1.346   2.305   0.000   3.651
   11        1.349   2.304   0.000   3.653
   12        1.348   2.304   0.000   3.652
--------------------------------------------------
tot         12.866  21.643  27.236  61.745
 

 total amount of memory used by VASP MPI-rank0    82797. kBytes
=======================================================================

   base      :      30000. kBytes
   nonl-proj :      19297. kBytes
   fftplans  :       2273. kBytes
   grid      :       3643. kBytes
   one-center:         93. kBytes
   wavefun   :      27491. kBytes
 
  
  
 General timing and accounting informations for this job:
 ========================================================
  
                  Total CPU time used (sec):       38.292
                            User time (sec):       37.155
                          System time (sec):        1.137
                         Elapsed time (sec):       39.069
  
                   Maximum memory used (kb):      148000.
                   Average memory used (kb):           0.
  
                          Minor page faults:        18823
                          Major page faults:            0
                 Voluntary context switches:         3675
