    2    2    1    1
  0.5643294E+01  0.2517827E-09  0.2517827E-09  0.2517827E-09  0.5000000E-15
  1.000000000000000E-004
  CAR 
 Diamont Test Results                    
      8      3      8
 
  0.0000000E+00  0.0000000E+00  0.0000000E+00  0.1250000E+00
    1      -11.963895   1.000000
    2        9.299615   1.000000
    3        9.299644   1.000000
    4        9.299646   1.000000
    5       15.358800   0.000000
    6       15.358818   0.000000
    7       15.358822   0.000000
    8       23.137594   0.000000
 
  0.5000000E+00  0.2114441E-16  0.0000000E+00  0.5000000E+00
    1       -6.382745   1.000000
    2       -3.724583   1.000000
    3        6.503409   1.000000
    4        6.503431   1.000000
    5       18.319259   0.000000
    6       18.319283   0.000000
    7       18.633956   0.000000
    8       26.503152   0.000000
 
  0.5000000E+00  0.5000000E+00  0.0000000E+00  0.3750000E+00
    1       -3.374541   1.000000
    2       -3.374540   1.000000
    3        3.141496   1.000000
    4        3.141509   1.000000
    5       14.955389   0.000000
    6       14.955401   0.000000
    7       27.054910   0.000000
    8       27.054937   0.000000
