PROCAR lm decomposed
# of k-points:   27         # of bands:  16         # of ions:   2

 k-point    1 :    0.00000000 0.00000000 0.00000000     weight = 0.00444444

band   1 # energy  -17.13495549 # occ.  2.00000000
 
ion      s     py     pz     px    dxy    dyz    dz2    dxz    dx2    tot
  1  0.261  0.000  0.000  0.000  0.000  0.000  0.000  0.000  0.000  0.261
  2  0.304  0.000  0.000  0.000  0.000  0.000  0.000  0.000  0.000  0.304
tot  0.565  0.000  0.000  0.000  0.000  0.000  0.000  0.000  0.000  0.565
 
band   2 # energy   -7.18847684 # occ.  2.00000000
 
ion      s     py     pz     px    dxy    dyz    dz2    dxz    dx2    tot
  1  0.000  0.000  0.156  0.000  0.000  0.000  0.000  0.000  0.000  0.156
  2  0.000  0.000  0.178  0.000  0.000  0.000  0.000  0.000  0.000  0.178
tot  0.000  0.000  0.334  0.000  0.000  0.000  0.000  0.000  0.000  0.334
 
band   3 # energy   -4.64703906 # occ.  2.00000000
 
ion      s     py     pz     px    dxy    dyz    dz2    dxz    dx2    tot
  1  0.000  0.001  0.000  0.149  0.000  0.000  0.000  0.000  0.000  0.150
  2  0.000  0.004  0.000  0.457  0.000  0.000  0.000  0.000  0.000  0.461
tot  0.000  0.006  0.000  0.606  0.000  0.000  0.000  0.000  0.000  0.611
 
band   4 # energy   -4.64703827 # occ.  2.00000000
 
ion      s     py     pz     px    dxy    dyz    dz2    dxz    dx2    tot
  1  0.000  0.149  0.000  0.001  0.000  0.000  0.000  0.000  0.000  0.150
  2  0.000  0.457  0.000  0.004  0.000  0.000  0.000  0.000  0.000  0.461
tot  0.000  0.606  0.000  0.006  0.000  0.000  0.000  0.000  0.000  0.611
 
band   5 # energy   -0.24671184 # occ.  0.00000000
 
ion      s     py     pz     px    dxy    dyz    dz2    dxz    dx2    tot
  1  0.015  0.000  0.000  0.000  0.000  0.000  0.000  0.000  0.000  0.015
  2  0.112  0.000  0.000  0.000  0.000  0.000  0.000  0.000  0.000  0.112
tot  0.127  0.000  0.000  0.000  0.000  0.000  0.000  0.000  0.000  0.127
 
band   6 # energy    1.40690937 # occ.  0.00000000
 
ion      s     py     pz     px    dxy    dyz    dz2    dxz    dx2    tot
  1  0.000  0.000  0.002  0.000  0.000  0.000  0.000  0.000  0.000  0.002
  2  0.000  0.000  0.041  0.000  0.000  0.000  0.000  0.000  0.000  0.041
tot  0.000  0.000  0.044  0.000  0.000  0.000  0.000  0.000  0.000  0.044
 
band   7 # energy    1.52985481 # occ.  0.00000000
 
ion      s     py     pz     px    dxy    dyz    dz2    dxz    dx2    tot
  1  0.003  0.000  0.000  0.000  0.000  0.000  0.000  0.000  0.000  0.003
  2  0.008  0.000  0.000  0.000  0.000  0.000  0.000  0.000  0.000  0.008
tot  0.011  0.000  0.000  0.000  0.000  0.000  0.000  0.000  0.000  0.011
 
band   8 # energy    2.54273899 # occ.  0.00000000
 
ion      s     py     pz     px    dxy    dyz    dz2    dxz    dx2    tot
  1  0.056  0.000  0.000  0.000  0.000  0.000  0.000  0.000  0.000  0.056
  2  0.088  0.000  0.000  0.000  0.000  0.000  0.000  0.000  0.000  0.088
tot  0.144  0.000  0.000  0.000  0.000  0.000  0.000  0.000  0.000  0.144
 
band   9 # energy    2.55882704 # occ.  0.00000000
 
ion      s     py     pz     px    dxy    dyz    dz2    dxz    dx2    tot
  1  0.000  0.000  0.000  0.000  0.000  0.000  0.000  0.000  0.000  0.000
  2  0.000  0.000  0.035  0.000  0.000  0.000  0.000  0.000  0.000  0.035
tot  0.000  0.000  0.035  0.000  0.000  0.000  0.000  0.000  0.000  0.035
 
band  10 # energy    3.93877748 # occ.  0.00000000
 
ion      s     py     pz     px    dxy    dyz    dz2    dxz    dx2    tot
  1  0.105  0.000  0.000  0.000  0.000  0.000  0.000  0.000  0.000  0.105
  2  0.095  0.000  0.000  0.000  0.000  0.000  0.000  0.000  0.000  0.095
tot  0.200  0.000  0.000  0.000  0.000  0.000  0.000  0.000  0.000  0.200
 
band  11 # energy    4.34588998 # occ.  0.00000000
 
ion      s     py     pz     px    dxy    dyz    dz2    dxz    dx2    tot
  1  0.000  0.388  0.000  0.000  0.000  0.000  0.000  0.000  0.000  0.389
  2  0.000  0.022  0.000  0.000  0.000  0.000  0.000  0.000  0.000  0.022
tot  0.000  0.410  0.000  0.000  0.000  0.000  0.000  0.000  0.000  0.411
 
band  12 # energy    4.34589065 # occ.  0.00000000
 
ion      s     py     pz     px    dxy    dyz    dz2    dxz    dx2    tot
  1  0.000  0.000  0.000  0.388  0.000  0.000  0.000  0.000  0.000  0.389
  2  0.000  0.000  0.000  0.022  0.000  0.000  0.000  0.000  0.000  0.022
tot  0.000  0.000  0.000  0.410  0.000  0.000  0.000  0.000  0.000  0.411
 
band  13 # energy    4.57963829 # occ.  0.00000000
 
ion      s     py     pz     px    dxy    dyz    dz2    dxz    dx2    tot
  1  0.000  0.000  0.009  0.000  0.000  0.000  0.000  0.000  0.000  0.009
  2  0.000  0.000  0.125  0.000  0.000  0.000  0.000  0.000  0.000  0.125
tot  0.000  0.000  0.134  0.000  0.000  0.000  0.000  0.000  0.000  0.134
 
band  14 # energy    5.81177753 # occ.  0.00000000
 
ion      s     py     pz     px    dxy    dyz    dz2    dxz    dx2    tot
  1  0.079  0.000  0.000  0.000  0.000  0.000  0.000  0.000  0.000  0.079
  2  0.041  0.000  0.000  0.000  0.000  0.000  0.000  0.000  0.000  0.041
tot  0.120  0.000  0.000  0.000  0.000  0.000  0.000  0.000  0.000  0.120
 
band  15 # energy    6.41427968 # occ.  0.00000000
 
ion      s     py     pz     px    dxy    dyz    dz2    dxz    dx2    tot
  1  0.000  0.000  0.110  0.000  0.000  0.000  0.000  0.000  0.000  0.110
  2  0.000  0.000  0.196  0.000  0.000  0.000  0.000  0.000  0.000  0.196
tot  0.000  0.000  0.306  0.000  0.000  0.000  0.000  0.000  0.000  0.306
 
band  16 # energy    8.56461587 # occ.  0.00000000
 
ion      s     py     pz     px    dxy    dyz    dz2    dxz    dx2    tot
  1  0.015  0.000  0.000  0.000  0.000  0.000  0.000  0.000  0.000  0.015
  2  0.010  0.000  0.000  0.000  0.000  0.000  0.000  0.000  0.000  0.010
tot  0.024  0.000  0.000  0.000  0.000  0.000  0.000  0.000  0.000  0.024
 

 k-point    2 :    0.06666667 0.00000000 0.00000000     weight = 0.02666667

band   1 # energy  -17.06043736 # occ.  2.00000000
 
ion      s     py     pz     px    dxy    dyz    dz2    dxz    dx2    tot
  1  0.258  0.001  0.000  0.002  0.000  0.000  0.000  0.000  0.000  0.260
  2  0.305  0.000  0.000  0.001  0.000  0.000  0.000  0.000  0.000  0.305
tot  0.563  0.001  0.000  0.002  0.000  0.000  0.000  0.000  0.000  0.566
 
band   2 # energy   -7.11043088 # occ.  2.00000000
 
ion      s     py     pz     px    dxy    dyz    dz2    dxz    dx2    tot
  1  0.000  0.000  0.155  0.000  0.000  0.000  0.000  0.000  0.000  0.155
  2  0.000  0.000  0.180  0.000  0.000  0.000  0.000  0.000  0.000  0.180
tot  0.000  0.000  0.335  0.000  0.000  0.000  0.000  0.000  0.000  0.335
 
band   3 # energy   -4.97390960 # occ.  2.00000000
 
ion      s     py     pz     px    dxy    dyz    dz2    dxz    dx2    tot
  1  0.014  0.037  0.000  0.112  0.000  0.000  0.000  0.000  0.000  0.163
  2  0.018  0.107  0.000  0.321  0.000  0.000  0.000  0.000  0.000  0.446
tot  0.032  0.144  0.000  0.433  0.000  0.000  0.000  0.000  0.000  0.610
 
band   4 # energy   -4.73620944 # occ.  2.00000000
 
ion      s     py     pz     px    dxy    dyz    dz2    dxz    dx2    tot
  1  0.000  0.119  0.000  0.040  0.000  0.000  0.000  0.000  0.000  0.158
  2  0.000  0.341  0.000  0.114  0.000  0.000  0.000  0.000  0.000  0.454
tot  0.000  0.460  0.000  0.153  0.000  0.000  0.000  0.000  0.000  0.613
 
band   5 # energy   -0.12522241 # occ.  0.00000000
 
ion      s     py     pz     px    dxy    dyz    dz2    dxz    dx2    tot
  1  0.012  0.000  0.000  0.000  0.000  0.000  0.000  0.000  0.000  0.013
  2  0.100  0.002  0.000  0.007  0.000  0.000  0.000  0.000  0.000  0.110
tot  0.112  0.003  0.000  0.008  0.000  0.000  0.000  0.000  0.000  0.122
 
band   6 # energy    1.49225766 # occ.  0.00000000
 
ion      s     py     pz     px    dxy    dyz    dz2    dxz    dx2    tot
  1  0.000  0.000  0.002  0.000  0.000  0.000  0.000  0.000  0.000  0.002
  2  0.000  0.000  0.044  0.000  0.000  0.000  0.000  0.000  0.000  0.044
tot  0.000  0.000  0.046  0.000  0.000  0.000  0.000  0.000  0.000  0.046
 
band   7 # energy    1.62616520 # occ.  0.00000000
 
ion      s     py     pz     px    dxy    dyz    dz2    dxz    dx2    tot
  1  0.003  0.000  0.000  0.000  0.000  0.000  0.000  0.000  0.000  0.003
  2  0.007  0.000  0.000  0.000  0.000  0.000  0.000  0.000  0.000  0.008
tot  0.010  0.000  0.000  0.001  0.000  0.000  0.000  0.000  0.000  0.010
 
band   8 # energy    2.64313418 # occ.  0.00000000
 
ion      s     py     pz     px    dxy    dyz    dz2    dxz    dx2    tot
  1  0.000  0.000  0.000  0.000  0.000  0.000  0.000  0.000  0.000  0.000
  2  0.000  0.000  0.038  0.000  0.000  0.000  0.000  0.000  0.000  0.038
tot  0.000  0.000  0.038  0.000  0.000  0.000  0.000  0.000  0.000  0.038
 
band   9 # energy    2.65537309 # occ.  0.00000000
 
ion      s     py     pz     px    dxy    dyz    dz2    dxz    dx2    tot
  1  0.053  0.000  0.000  0.001  0.000  0.000  0.000  0.000  0.000  0.054
  2  0.078  0.002  0.000  0.006  0.000  0.000  0.000  0.000  0.000  0.086
tot  0.131  0.002  0.000  0.007  0.000  0.000  0.000  0.000  0.000  0.140
 
band  10 # energy    3.98026367 # occ.  0.00000000
 
ion      s     py     pz     px    dxy    dyz    dz2    dxz    dx2    tot
  1  0.089  0.026  0.000  0.078  0.000  0.000  0.000  0.000  0.000  0.194
  2  0.046  0.004  0.000  0.012  0.000  0.000  0.000  0.000  0.000  0.062
tot  0.135  0.030  0.000  0.090  0.000  0.000  0.000  0.000  0.000  0.256
 
band  11 # energy    4.25965726 # occ.  0.00000000
 
ion      s     py     pz     px    dxy    dyz    dz2    dxz    dx2    tot
  1  0.019  0.062  0.000  0.186  0.000  0.000  0.000  0.000  0.000  0.267
  2  0.051  0.004  0.000  0.012  0.000  0.000  0.000  0.000  0.000  0.067
tot  0.070  0.066  0.000  0.198  0.000  0.000  0.000  0.000  0.000  0.334
 
band  12 # energy    4.58212881 # occ.  0.00000000
 
ion      s     py     pz     px    dxy    dyz    dz2    dxz    dx2    tot
  1  0.000  0.284  0.000  0.095  0.000  0.000  0.000  0.000  0.000  0.378
  2  0.000  0.023  0.000  0.008  0.000  0.000  0.000  0.000  0.000  0.030
tot  0.000  0.306  0.000  0.102  0.000  0.000  0.000  0.000  0.000  0.409
 
band  13 # energy    4.60400341 # occ.  0.00000000
 
ion      s     py     pz     px    dxy    dyz    dz2    dxz    dx2    tot
  1  0.000  0.000  0.016  0.000  0.000  0.000  0.000  0.000  0.000  0.016
  2  0.000  0.000  0.141  0.000  0.000  0.000  0.000  0.000  0.000  0.141
tot  0.000  0.000  0.157  0.000  0.000  0.000  0.000  0.000  0.000  0.157
 
band  14 # energy    5.93955463 # occ.  0.00000000
 
ion      s     py     pz     px    dxy    dyz    dz2    dxz    dx2    tot
  1  0.082  0.000  0.000  0.001  0.000  0.000  0.000  0.000  0.000  0.084
  2  0.042  0.001  0.000  0.004  0.000  0.000  0.000  0.000  0.000  0.046
tot  0.124  0.002  0.000  0.005  0.000  0.000  0.000  0.000  0.000  0.131
 
band  15 # energy    6.29520350 # occ.  0.00000000
 
ion      s     py     pz     px    dxy    dyz    dz2    dxz    dx2    tot
  1  0.000  0.000  0.123  0.000  0.000  0.000  0.000  0.000  0.000  0.123
  2  0.000  0.000  0.167  0.000  0.000  0.000  0.000  0.000  0.000  0.167
tot  0.000  0.000  0.291  0.000  0.000  0.000  0.000  0.000  0.000  0.291
 
band  16 # energy    8.62072534 # occ.  0.00000000
 
ion      s     py     pz     px    dxy    dyz    dz2    dxz    dx2    tot
  1  0.000  0.000  0.106  0.000  0.000  0.000  0.000  0.000  0.000  0.106
  2  0.000  0.000  0.014  0.000  0.000  0.000  0.000  0.000  0.000  0.014
tot  0.000  0.000  0.119  0.000  0.000  0.000  0.000  0.000  0.000  0.119
 

 k-point    3 :    0.13333333 0.00000000 0.00000000     weight = 0.02666667

band   1 # energy  -16.83840887 # occ.  2.00000000
 
ion      s     py     pz     px    dxy    dyz    dz2    dxz    dx2    tot
  1  0.249  0.002  0.000  0.007  0.000  0.000  0.000  0.000  0.000  0.259
  2  0.306  0.001  0.000  0.002  0.000  0.000  0.000  0.000  0.000  0.309
tot  0.556  0.003  0.000  0.009  0.000  0.000  0.000  0.000  0.000  0.568
 
band   2 # energy   -6.87783516 # occ.  2.00000000
 
ion      s     py     pz     px    dxy    dyz    dz2    dxz    dx2    tot
  1  0.000  0.000  0.152  0.000  0.000  0.000  0.000  0.000  0.000  0.152
  2  0.000  0.000  0.184  0.000  0.000  0.000  0.000  0.000  0.000  0.184
tot  0.000  0.000  0.336  0.000  0.000  0.000  0.000  0.000  0.000  0.336
 
band   3 # energy   -5.81438866 # occ.  2.00000000
 
ion      s     py     pz     px    dxy    dyz    dz2    dxz    dx2    tot
  1  0.047  0.037  0.000  0.110  0.000  0.000  0.000  0.000  0.000  0.193
  2  0.051  0.091  0.000  0.272  0.000  0.000  0.000  0.000  0.000  0.414
tot  0.098  0.127  0.000  0.382  0.000  0.000  0.000  0.000  0.000  0.607
 
band   4 # energy   -4.97187160 # occ.  2.00000000
 
ion      s     py     pz     px    dxy    dyz    dz2    dxz    dx2    tot
  1  0.000  0.134  0.000  0.045  0.000  0.000  0.000  0.000  0.000  0.179
  2  0.000  0.329  0.000  0.110  0.000  0.000  0.000  0.000  0.000  0.438
tot  0.000  0.463  0.000  0.154  0.000  0.000  0.000  0.000  0.000  0.617
 
band   5 # energy    0.18316050 # occ.  0.00000000
 
ion      s     py     pz     px    dxy    dyz    dz2    dxz    dx2    tot
  1  0.009  0.001  0.000  0.002  0.000  0.000  0.000  0.000  0.000  0.012
  2  0.081  0.006  0.000  0.018  0.000  0.000  0.000  0.000  0.000  0.105
tot  0.090  0.007  0.000  0.020  0.000  0.000  0.000  0.000  0.000  0.117
 
band   6 # energy    1.73996519 # occ.  0.00000000
 
ion      s     py     pz     px    dxy    dyz    dz2    dxz    dx2    tot
  1  0.000  0.000  0.001  0.000  0.000  0.000  0.000  0.000  0.000  0.001
  2  0.000  0.000  0.055  0.000  0.000  0.000  0.000  0.000  0.000  0.055
tot  0.000  0.000  0.056  0.000  0.000  0.000  0.000  0.000  0.000  0.056
 
band   7 # energy    1.90942093 # occ.  0.00000000
 
ion      s     py     pz     px    dxy    dyz    dz2    dxz    dx2    tot
  1  0.003  0.000  0.000  0.000  0.000  0.000  0.000  0.000  0.000  0.004
  2  0.006  0.000  0.000  0.001  0.000  0.000  0.000  0.000  0.000  0.008
tot  0.009  0.001  0.000  0.002  0.000  0.000  0.000  0.000  0.000  0.011
 
band   8 # energy    2.86119617 # occ.  0.00000000
 
ion      s     py     pz     px    dxy    dyz    dz2    dxz    dx2    tot
  1  0.070  0.009  0.000  0.026  0.000  0.000  0.000  0.000  0.000  0.104
  2  0.059  0.005  0.000  0.014  0.000  0.000  0.000  0.000  0.000  0.078
tot  0.128  0.013  0.000  0.040  0.000  0.000  0.000  0.000  0.000  0.182
 
band   9 # energy    2.88397764 # occ.  0.00000000
 
ion      s     py     pz     px    dxy    dyz    dz2    dxz    dx2    tot
  1  0.000  0.000  0.001  0.000  0.000  0.000  0.000  0.000  0.000  0.001
  2  0.000  0.000  0.049  0.000  0.000  0.000  0.000  0.000  0.000  0.049
tot  0.000  0.000  0.049  0.000  0.000  0.000  0.000  0.000  0.000  0.049
 
band  10 # energy    3.67534059 # occ.  0.00000000
 
ion      s     py     pz     px    dxy    dyz    dz2    dxz    dx2    tot
  1  0.040  0.043  0.000  0.130  0.000  0.000  0.000  0.000  0.000  0.214
  2  0.009  0.004  0.000  0.013  0.000  0.000  0.000  0.000  0.000  0.027
tot  0.049  0.048  0.000  0.144  0.000  0.000  0.000  0.000  0.000  0.241
 
band  11 # energy    4.55835255 # occ.  0.00000000
 
ion      s     py     pz     px    dxy    dyz    dz2    dxz    dx2    tot
  1  0.000  0.000  0.058  0.000  0.000  0.000  0.000  0.000  0.000  0.058
  2  0.000  0.000  0.181  0.000  0.000  0.000  0.000  0.000  0.000  0.181
tot  0.000  0.000  0.239  0.000  0.000  0.000  0.000  0.000  0.000  0.239
 
band  12 # energy    4.64483694 # occ.  0.00000000
 
ion      s     py     pz     px    dxy    dyz    dz2    dxz    dx2    tot
  1  0.048  0.017  0.000  0.051  0.000  0.000  0.000  0.000  0.000  0.116
  2  0.081  0.010  0.000  0.029  0.000  0.000  0.000  0.000  0.000  0.120
tot  0.129  0.027  0.000  0.080  0.000  0.000  0.000  0.000  0.000  0.236
 
band  13 # energy    5.25559074 # occ.  0.00000000
 
ion      s     py     pz     px    dxy    dyz    dz2    dxz    dx2    tot
  1  0.000  0.264  0.000  0.088  0.000  0.000  0.000  0.000  0.000  0.352
  2  0.000  0.038  0.000  0.013  0.000  0.000  0.000  0.000  0.000  0.050
tot  0.000  0.302  0.000  0.101  0.000  0.000  0.000  0.000  0.000  0.402
 
band  14 # energy    6.03038288 # occ.  0.00000000
 
ion      s     py     pz     px    dxy    dyz    dz2    dxz    dx2    tot
  1  0.000  0.000  0.122  0.000  0.000  0.000  0.000  0.000  0.000  0.122
  2  0.000  0.000  0.067  0.000  0.000  0.000  0.000  0.000  0.000  0.067
tot  0.000  0.000  0.189  0.000  0.000  0.000  0.000  0.000  0.000  0.189
 
band  15 # energy    6.33144808 # occ.  0.00000000
 
ion      s     py     pz     px    dxy    dyz    dz2    dxz    dx2    tot
  1  0.086  0.003  0.000  0.008  0.000  0.000  0.000  0.000  0.000  0.097
  2  0.044  0.006  0.000  0.017  0.000  0.000  0.000  0.000  0.000  0.067
tot  0.131  0.008  0.000  0.025  0.000  0.000  0.000  0.000  0.000  0.164
 
band  16 # energy    8.61426715 # occ.  0.00000000
 
ion      s     py     pz     px    dxy    dyz    dz2    dxz    dx2    tot
  1  0.000  0.000  0.071  0.000  0.000  0.000  0.000  0.000  0.000  0.071
  2  0.000  0.000  0.000  0.000  0.000  0.000  0.000  0.000  0.000  0.000
tot  0.000  0.000  0.071  0.000  0.000  0.000  0.000  0.000  0.000  0.071
 

 k-point    4 :    0.20000000-0.00000000 0.00000000     weight = 0.02666667

band   1 # energy  -16.47399600 # occ.  2.00000000
 
ion      s     py     pz     px    dxy    dyz    dz2    dxz    dx2    tot
  1  0.235  0.005  0.000  0.016  0.000  0.000  0.000  0.000  0.000  0.255
  2  0.310  0.002  0.000  0.005  0.000  0.000  0.000  0.000  0.000  0.317
tot  0.545  0.007  0.000  0.021  0.000  0.000  0.000  0.000  0.000  0.572
 
band   2 # energy   -6.92929566 # occ.  2.00000000
 
ion      s     py     pz     px    dxy    dyz    dz2    dxz    dx2    tot
  1  0.085  0.035  0.000  0.106  0.000  0.000  0.000  0.000  0.000  0.226
  2  0.077  0.075  0.000  0.225  0.000  0.000  0.000  0.000  0.000  0.378
tot  0.162  0.110  0.000  0.331  0.000  0.000  0.000  0.000  0.000  0.604
 
band   3 # energy   -6.49599700 # occ.  2.00000000
 
ion      s     py     pz     px    dxy    dyz    dz2    dxz    dx2    tot
  1  0.000  0.000  0.146  0.000  0.000  0.000  0.000  0.000  0.000  0.146
  2  0.000  0.000  0.192  0.000  0.000  0.000  0.000  0.000  0.000  0.192
tot  0.000  0.000  0.338  0.000  0.000  0.000  0.000  0.000  0.000  0.338
 
band   4 # energy   -5.28327129 # occ.  2.00000000
 
ion      s     py     pz     px    dxy    dyz    dz2    dxz    dx2    tot
  1  0.000  0.152  0.000  0.051  0.000  0.000  0.000  0.000  0.000  0.203
  2  0.000  0.315  0.000  0.105  0.000  0.000  0.000  0.000  0.000  0.420
tot  0.000  0.467  0.000  0.156  0.000  0.000  0.000  0.000  0.000  0.622
 
band   5 # energy    0.58666671 # occ.  0.00000000
 
ion      s     py     pz     px    dxy    dyz    dz2    dxz    dx2    tot
  1  0.016  0.003  0.000  0.008  0.000  0.000  0.000  0.000  0.000  0.026
  2  0.074  0.008  0.000  0.025  0.000  0.000  0.000  0.000  0.000  0.108
tot  0.090  0.011  0.000  0.033  0.000  0.000  0.000  0.000  0.000  0.134
 
band   6 # energy    2.09099744 # occ.  0.00000000
 
ion      s     py     pz     px    dxy    dyz    dz2    dxz    dx2    tot
  1  0.000  0.000  0.002  0.000  0.000  0.000  0.000  0.000  0.000  0.002
  2  0.000  0.000  0.098  0.000  0.000  0.000  0.000  0.000  0.000  0.098
tot  0.000  0.000  0.100  0.000  0.000  0.000  0.000  0.000  0.000  0.100
 
band   7 # energy    2.34481410 # occ.  0.00000000
 
ion      s     py     pz     px    dxy    dyz    dz2    dxz    dx2    tot
  1  0.019  0.003  0.000  0.010  0.000  0.000  0.000  0.000  0.000  0.032
  2  0.011  0.001  0.000  0.003  0.000  0.000  0.000  0.000  0.000  0.015
tot  0.029  0.004  0.000  0.013  0.000  0.000  0.000  0.000  0.000  0.047
 
band   8 # energy    2.72941755 # occ.  0.00000000
 
ion      s     py     pz     px    dxy    dyz    dz2    dxz    dx2    tot
  1  0.096  0.023  0.000  0.070  0.000  0.000  0.000  0.000  0.000  0.189
  2  0.029  0.004  0.000  0.011  0.000  0.000  0.000  0.000  0.000  0.044
tot  0.124  0.027  0.000  0.081  0.000  0.000  0.000  0.000  0.000  0.233
 
band   9 # energy    3.18273229 # occ.  0.00000000
 
ion      s     py     pz     px    dxy    dyz    dz2    dxz    dx2    tot
  1  0.000  0.000  0.022  0.000  0.000  0.000  0.000  0.000  0.000  0.022
  2  0.000  0.000  0.087  0.000  0.000  0.000  0.000  0.000  0.000  0.087
tot  0.000  0.000  0.108  0.000  0.000  0.000  0.000  0.000  0.000  0.108
 
band  10 # energy    3.82076121 # occ.  0.00000000
 
ion      s     py     pz     px    dxy    dyz    dz2    dxz    dx2    tot
  1  0.006  0.011  0.000  0.033  0.000  0.000  0.000  0.000  0.000  0.050
  2  0.016  0.006  0.000  0.017  0.000  0.000  0.000  0.000  0.000  0.038
tot  0.022  0.016  0.000  0.049  0.000  0.000  0.000  0.000  0.000  0.088
 
band  11 # energy    4.19747038 # occ.  0.00000000
 
ion      s     py     pz     px    dxy    dyz    dz2    dxz    dx2    tot
  1  0.000  0.000  0.120  0.000  0.000  0.000  0.000  0.000  0.000  0.120
  2  0.000  0.000  0.108  0.000  0.000  0.000  0.000  0.000  0.000  0.108
tot  0.000  0.000  0.228  0.000  0.000  0.000  0.000  0.000  0.000  0.228
 
band  12 # energy    5.28998469 # occ.  0.00000000
 
ion      s     py     pz     px    dxy    dyz    dz2    dxz    dx2    tot
  1  0.031  0.010  0.000  0.031  0.000  0.000  0.000  0.000  0.000  0.072
  2  0.060  0.016  0.000  0.048  0.000  0.000  0.000  0.000  0.000  0.124
tot  0.091  0.027  0.000  0.080  0.000  0.000  0.000  0.000  0.000  0.197
 
band  13 # energy    6.05941168 # occ.  0.00000000
 
ion      s     py     pz     px    dxy    dyz    dz2    dxz    dx2    tot
  1  0.000  0.000  0.067  0.000  0.000  0.000  0.000  0.000  0.000  0.067
  2  0.000  0.000  0.002  0.000  0.000  0.000  0.000  0.000  0.000  0.002
tot  0.000  0.000  0.068  0.000  0.000  0.000  0.000  0.000  0.000  0.068
 
band  14 # energy    6.28364448 # occ.  0.00000000
 
ion      s     py     pz     px    dxy    dyz    dz2    dxz    dx2    tot
  1  0.000  0.238  0.000  0.079  0.000  0.000  0.000  0.000  0.000  0.317
  2  0.000  0.057  0.000  0.019  0.000  0.000  0.000  0.000  0.000  0.076
tot  0.000  0.295  0.000  0.098  0.000  0.000  0.000  0.000  0.000  0.394
 
band  15 # energy    6.96609951 # occ.  0.00000000
 
ion      s     py     pz     px    dxy    dyz    dz2    dxz    dx2    tot
  1  0.082  0.006  0.000  0.017  0.000  0.000  0.000  0.000  0.000  0.104
  2  0.043  0.014  0.000  0.041  0.000  0.000  0.000  0.000  0.000  0.097
tot  0.124  0.019  0.000  0.057  0.000  0.000  0.000  0.000  0.000  0.201
 
band  16 # energy    8.77156370 # occ.  0.00000000
 
ion      s     py     pz     px    dxy    dyz    dz2    dxz    dx2    tot
  1  0.000  0.000  0.040  0.000  0.000  0.000  0.000  0.000  0.000  0.040
  2  0.000  0.000  0.021  0.000  0.000  0.000  0.000  0.000  0.000  0.021
tot  0.000  0.000  0.062  0.000  0.000  0.000  0.000  0.000  0.000  0.062
 

 k-point    5 :    0.26666667 0.00000000 0.00000000     weight = 0.02666667

band   1 # energy  -15.97818442 # occ.  2.00000000
 
ion      s     py     pz     px    dxy    dyz    dz2    dxz    dx2    tot
  1  0.213  0.009  0.000  0.027  0.000  0.000  0.000  0.000  0.000  0.249
  2  0.318  0.003  0.000  0.008  0.000  0.000  0.000  0.000  0.000  0.329
tot  0.531  0.012  0.000  0.036  0.000  0.000  0.000  0.000  0.000  0.578
 
band   2 # energy   -8.14526452 # occ.  2.00000000
 
ion      s     py     pz     px    dxy    dyz    dz2    dxz    dx2    tot
  1  0.126  0.033  0.000  0.099  0.000  0.000  0.000  0.000  0.000  0.257
  2  0.090  0.063  0.000  0.188  0.000  0.000  0.000  0.000  0.000  0.342
tot  0.216  0.096  0.000  0.287  0.000  0.000  0.000  0.000  0.000  0.599
 
band   3 # energy   -5.97673090 # occ.  2.00000000
 
ion      s     py     pz     px    dxy    dyz    dz2    dxz    dx2    tot
  1  0.000  0.000  0.137  0.000  0.000  0.000  0.000  0.000  0.000  0.137
  2  0.000  0.000  0.206  0.000  0.000  0.000  0.000  0.000  0.000  0.206
tot  0.000  0.000  0.342  0.000  0.000  0.000  0.000  0.000  0.000  0.342
 
band   4 # energy   -5.60078709 # occ.  2.00000000
 
ion      s     py     pz     px    dxy    dyz    dz2    dxz    dx2    tot
  1  0.000  0.169  0.000  0.056  0.000  0.000  0.000  0.000  0.000  0.225
  2  0.000  0.302  0.000  0.101  0.000  0.000  0.000  0.000  0.000  0.403
tot  0.000  0.471  0.000  0.157  0.000  0.000  0.000  0.000  0.000  0.628
 
band   5 # energy    0.92279482 # occ.  0.00000000
 
ion      s     py     pz     px    dxy    dyz    dz2    dxz    dx2    tot
  1  0.052  0.008  0.000  0.025  0.000  0.000  0.000  0.000  0.000  0.086
  2  0.086  0.009  0.000  0.028  0.000  0.000  0.000  0.000  0.000  0.123
tot  0.138  0.018  0.000  0.053  0.000  0.000  0.000  0.000  0.000  0.209
 
band   6 # energy    2.06305518 # occ.  0.00000000
 
ion      s     py     pz     px    dxy    dyz    dz2    dxz    dx2    tot
  1  0.000  0.000  0.080  0.000  0.000  0.000  0.000  0.000  0.000  0.080
  2  0.000  0.000  0.213  0.000  0.000  0.000  0.000  0.000  0.000  0.213
tot  0.000  0.000  0.294  0.000  0.000  0.000  0.000  0.000  0.000  0.294
 
band   7 # energy    2.43855349 # occ.  0.00000000
 
ion      s     py     pz     px    dxy    dyz    dz2    dxz    dx2    tot
  1  0.095  0.015  0.000  0.046  0.000  0.000  0.000  0.000  0.000  0.157
  2  0.019  0.004  0.000  0.011  0.000  0.000  0.000  0.000  0.000  0.034
tot  0.114  0.019  0.000  0.057  0.000  0.000  0.000  0.000  0.000  0.191
 
band   8 # energy    3.09316083 # occ.  0.00000000
 
ion      s     py     pz     px    dxy    dyz    dz2    dxz    dx2    tot
  1  0.005  0.001  0.000  0.003  0.000  0.000  0.000  0.000  0.000  0.009
  2  0.001  0.001  0.000  0.002  0.000  0.000  0.000  0.000  0.000  0.004
tot  0.006  0.002  0.000  0.005  0.000  0.000  0.000  0.000  0.000  0.013
 
band   9 # energy    3.29186786 # occ.  0.00000000
 
ion      s     py     pz     px    dxy    dyz    dz2    dxz    dx2    tot
  1  0.000  0.000  0.064  0.000  0.000  0.000  0.000  0.000  0.000  0.064
  2  0.000  0.000  0.021  0.000  0.000  0.000  0.000  0.000  0.000  0.021
tot  0.000  0.000  0.085  0.000  0.000  0.000  0.000  0.000  0.000  0.085
 
band  10 # energy    4.29876543 # occ.  0.00000000
 
ion      s     py     pz     px    dxy    dyz    dz2    dxz    dx2    tot
  1  0.000  0.000  0.047  0.000  0.000  0.000  0.000  0.000  0.000  0.047
  2  0.000  0.000  0.002  0.000  0.000  0.000  0.000  0.000  0.000  0.002
tot  0.000  0.000  0.049  0.000  0.000  0.000  0.000  0.000  0.000  0.049
 
band  11 # energy    4.42666823 # occ.  0.00000000
 
ion      s     py     pz     px    dxy    dyz    dz2    dxz    dx2    tot
  1  0.002  0.003  0.000  0.010  0.000  0.000  0.000  0.000  0.000  0.015
  2  0.013  0.007  0.000  0.021  0.000  0.000  0.000  0.000  0.000  0.041
tot  0.015  0.010  0.000  0.031  0.000  0.000  0.000  0.000  0.000  0.056
 
band  12 # energy    6.03573240 # occ.  0.00000000
 
ion      s     py     pz     px    dxy    dyz    dz2    dxz    dx2    tot
  1  0.018  0.007  0.000  0.020  0.000  0.000  0.000  0.000  0.000  0.045
  2  0.037  0.021  0.000  0.062  0.000  0.000  0.000  0.000  0.000  0.119
tot  0.055  0.027  0.000  0.082  0.000  0.000  0.000  0.000  0.000  0.164
 
band  13 # energy    6.50367890 # occ.  0.00000000
 
ion      s     py     pz     px    dxy    dyz    dz2    dxz    dx2    tot
  1  0.000  0.000  0.036  0.000  0.000  0.000  0.000  0.000  0.000  0.036
  2  0.000  0.000  0.010  0.000  0.000  0.000  0.000  0.000  0.000  0.010
tot  0.000  0.000  0.045  0.000  0.000  0.000  0.000  0.000  0.000  0.045
 
band  14 # energy    7.57006489 # occ.  0.00000000
 
ion      s     py     pz     px    dxy    dyz    dz2    dxz    dx2    tot
  1  0.000  0.210  0.000  0.070  0.000  0.000  0.000  0.000  0.000  0.280
  2  0.000  0.078  0.000  0.026  0.000  0.000  0.000  0.000  0.000  0.104
tot  0.000  0.288  0.000  0.096  0.000  0.000  0.000  0.000  0.000  0.384
 
band  15 # energy    7.73610363 # occ.  0.00000000
 
ion      s     py     pz     px    dxy    dyz    dz2    dxz    dx2    tot
  1  0.063  0.007  0.000  0.022  0.000  0.000  0.000  0.000  0.000  0.093
  2  0.028  0.021  0.000  0.064  0.000  0.000  0.000  0.000  0.000  0.114
tot  0.092  0.029  0.000  0.086  0.000  0.000  0.000  0.000  0.000  0.207
 
band  16 # energy    8.94546044 # occ.  0.00000000
 
ion      s     py     pz     px    dxy    dyz    dz2    dxz    dx2    tot
  1  0.000  0.000  0.025  0.000  0.000  0.000  0.000  0.000  0.000  0.025
  2  0.000  0.000  0.068  0.000  0.000  0.000  0.000  0.000  0.000  0.068
tot  0.000  0.000  0.093  0.000  0.000  0.000  0.000  0.000  0.000  0.093
 

 k-point    6 :    0.33333333 0.00000000 0.00000000     weight = 0.02666667

band   1 # energy  -15.37460716 # occ.  2.00000000
 
ion      s     py     pz     px    dxy    dyz    dz2    dxz    dx2    tot
  1  0.182  0.014  0.000  0.042  0.000  0.000  0.000  0.000  0.000  0.239
  2  0.333  0.004  0.000  0.011  0.000  0.000  0.000  0.000  0.000  0.347
tot  0.515  0.018  0.000  0.053  0.000  0.000  0.000  0.000  0.000  0.586
 
band   2 # energy   -9.34576278 # occ.  2.00000000
 
ion      s     py     pz     px    dxy    dyz    dz2    dxz    dx2    tot
  1  0.170  0.029  0.000  0.088  0.000  0.000  0.000  0.000  0.000  0.287
  2  0.089  0.054  0.000  0.162  0.000  0.000  0.000  0.000  0.000  0.305
tot  0.259  0.083  0.000  0.250  0.000  0.000  0.000  0.000  0.000  0.592
 
band   3 # energy   -5.87378075 # occ.  2.00000000
 
ion      s     py     pz     px    dxy    dyz    dz2    dxz    dx2    tot
  1  0.000  0.182  0.000  0.061  0.000  0.000  0.000  0.000  0.000  0.243
  2  0.000  0.293  0.000  0.098  0.000  0.000  0.000  0.000  0.000  0.391
tot  0.000  0.475  0.000  0.158  0.000  0.000  0.000  0.000  0.000  0.634
 
band   4 # energy   -5.34647541 # occ.  2.00000000
 
ion      s     py     pz     px    dxy    dyz    dz2    dxz    dx2    tot
  1  0.000  0.000  0.123  0.000  0.000  0.000  0.000  0.000  0.000  0.123
  2  0.000  0.000  0.227  0.000  0.000  0.000  0.000  0.000  0.000  0.227