    2    2   50    1
  0.8979298E+02  0.3220000E-09  0.3220000E-09  0.2000000E-08  0.5000000E-15
  1.000000000000000E-004
  CAR 
 unknown system                          
      8     12     16
 
  0.0000000E+00  0.0000000E+00  0.0000000E+00  0.1234568E-01
    1      -17.489319
    2       -7.198904
    3       -4.459455
    4       -4.459454
    5       -0.750005
    6        1.031456
    7        1.096301
    8        1.666967
    9        2.384174
   10        3.086261
   11        3.948288
   12        3.948289
   13        3.994796
   14        5.359314
   15        5.643813
   16        8.307671
 
  0.1111111E+00 -0.2775558E-16  0.0000000E+00  0.7407407E-01
    1      -17.292308
    2       -6.985383
    3       -5.584449
    4       -4.787936
    5       -0.269898
    6        1.228877
    7        1.447810
    8        1.941062
    9        2.552059
   10        3.261805
   11        3.733923
   12        3.910239
   13        4.633372
   14        5.575860
   15        5.620173
   16        8.353381
 
  0.2222222E+00 -0.1387779E-16  0.0000000E+00  0.7407407E-01
    1      -16.708100
    2       -7.726191
    3       -6.361304
    4       -5.484354
    5        0.342831
    6        1.589005
    7        1.750805
    8        2.514817
    9        2.705832
   10        3.654269
   11        3.794973
   12        4.698643
   13        5.859683
   14        6.365900
   15        6.420768
   16        8.515957
 
  0.3333333E+00 -0.2775558E-16  0.0000000E+00  0.7407407E-01
    1      -15.772532
    2       -9.924594
    3       -6.128229
    4       -5.397776
    5        0.328550
    6        0.617199
    7        2.378928
    8        3.374097
    9        3.669528
   10        4.705323
   11        4.791667
   12        6.073742
   13        6.645522
   14        7.605298
   15        8.194704
   16        8.563501
 
  0.4444444E+00 -0.2775558E-16  0.0000000E+00  0.7407407E-01
    1      -14.690177
    2      -11.688132
    3       -6.493126
    4       -4.383026
    5       -0.773371
    6        0.080798
    7        3.792974
    8        4.796466
    9        5.280583
   10        5.659057
   11        6.016307
   12        6.567445
   13        6.823329
   14        7.420811
   15        7.747948
   16        7.993861
 
  0.1111111E+00  0.1111111E+00  0.0000000E+00  0.7407407E-01
    1      -16.901410
    2       -7.006852
    3       -6.566028
    4       -5.497588
    5        0.326339
    6        1.540350
    7        1.976017
    8        2.418860
    9        2.719613
   10        3.315699
   11        3.750069
   12        3.898423
   13        5.723258
   14        5.811457
   15        6.365823
   16        8.474825
 
  0.2222222E+00  0.1111111E+00  0.0000000E+00  0.1481481E+00
    1      -16.137255
    2       -8.944428
    3       -6.431347
    4       -5.765122
    5        1.015174
    6        1.199489
    7        2.325204
    8        3.002646
    9        3.202933
   10        4.146720
   11        4.296481
   12        5.031921
   13        6.309780
   14        6.944441
   15        7.803134
   16        8.095680
 
  0.3333333E+00  0.1111111E+00  0.0000000E+00  0.1481481E+00
    1      -15.081157
    2      -10.872267
    3       -7.064061
    4       -4.718871
    5       -0.181531
    6        1.065376
    7        3.226921
    8        4.168421
    9        4.603973
   10        5.434868
   11        5.512991
   12        6.433284
   13        6.501250
   14        7.928123
   15        8.035421
   16        8.557385
 
  0.4444444E+00  0.1111111E+00  0.0000000E+00  0.7407407E-01
    1      -14.307899
    2      -11.960478
    3       -7.281595
    4       -4.045007
    5       -1.036687
    6        0.970189
    7        4.503406
    8        5.083359
    9        5.271011
   10        6.195836
   11        6.444296
   12        6.555221
   13        6.765726
   14        7.235526
   15        7.559383
   16        7.861517
 
  0.2222222E+00  0.2222222E+00  0.0000000E+00  0.7407407E-01
    1      -15.231822
    2      -10.270866
    3       -7.737676
    4       -4.851789
    5        0.168866
    6        2.112264
    7        3.356496
    8        3.932918
    9        4.328346
   10        4.864370
   11        5.144362
   12        5.982977
   13        6.064433
   14        7.794437
   15        8.067667
   16        8.643388
 
  0.3333333E+00  0.2222222E+00  0.0000000E+00  0.1481481E+00
    1      -14.201139
    2      -11.570130
    3       -8.473116
    4       -3.897943
    5       -0.903415
    6        2.616197
    7        4.313292
    8        4.454484
    9        5.833757
   10        5.917446
   11        6.217745
   12        7.140267
   13        7.194083
   14        7.819665
   15        7.955791
   16        8.234336
 
  0.3333333E+00  0.3333333E+00  0.0000000E+00  0.2469136E-01
    1      -13.662790
    2      -11.909286
    3       -9.144098
    4       -3.433419
    5       -1.272458
    6        3.349207
    7        3.836150
    8        5.452887
    9        6.373581
   10        7.208781
   11        7.237101
   12        7.663633
   13        7.680283
   14        7.947699
   15        8.008793
   16        8.055253
