PROCAR lm decomposed
# of k-points:   12         # of bands:  16         # of ions:   2

 k-point    1 :    0.00000000 0.00000000 0.00000000     weight = 0.01234568

band   1 # energy  -17.48931877 # occ.  2.00000000
 
ion      s     py     pz     px    dxy    dyz    dz2    dxz    dx2    tot
  1  0.384  0.000  0.000  0.000  0.000  0.000  0.009  0.000  0.000  0.393
  2  0.279  0.000  0.000  0.000  0.000  0.000  0.000  0.000  0.000  0.279
tot  0.663  0.000  0.000  0.000  0.000  0.000  0.009  0.000  0.000  0.672
 
band   2 # energy   -7.19890418 # occ.  2.00000000
 
ion      s     py     pz     px    dxy    dyz    dz2    dxz    dx2    tot
  1  0.000  0.000  0.218  0.000  0.000  0.000  0.000  0.000  0.000  0.218
  2  0.000  0.000  0.182  0.000  0.000  0.000  0.000  0.000  0.000  0.182
tot  0.000  0.000  0.399  0.000  0.000  0.000  0.000  0.000  0.000  0.399
 
band   3 # energy   -4.45945502 # occ.  2.00000000
 
ion      s     py     pz     px    dxy    dyz    dz2    dxz    dx2    tot
  1  0.000  0.013  0.000  0.229  0.094  0.000  0.000  0.000  0.005  0.342
  2  0.000  0.024  0.000  0.423  0.000  0.000  0.000  0.000  0.000  0.446
tot  0.000  0.037  0.000  0.652  0.094  0.000  0.000  0.000  0.005  0.788
 
band   4 # energy   -4.45945419 # occ.  2.00000000
 
ion      s     py     pz     px    dxy    dyz    dz2    dxz    dx2    tot
  1  0.000  0.229  0.000  0.013  0.005  0.000  0.000  0.000  0.094  0.342
  2  0.000  0.423  0.000  0.024  0.000  0.000  0.000  0.000  0.000  0.446
tot  0.000  0.652  0.000  0.037  0.005  0.000  0.000  0.000  0.094  0.788
 
band   5 # energy   -0.75000505 # occ.  0.00000000
 
ion      s     py     pz     px    dxy    dyz    dz2    dxz    dx2    tot
  1  0.098  0.000  0.000  0.000  0.000  0.000  0.060  0.000  0.000  0.158
  2  0.244  0.000  0.000  0.000  0.000  0.000  0.000  0.000  0.000  0.244
tot  0.342  0.000  0.000  0.000  0.000  0.000  0.060  0.000  0.000  0.401
 
band   6 # energy    1.03145625 # occ.  0.00000000
 
ion      s     py     pz     px    dxy    dyz    dz2    dxz    dx2    tot
  1  0.000  0.000  0.001  0.000  0.000  0.000  0.000  0.000  0.000  0.001
  2  0.000  0.000  0.058  0.000  0.000  0.000  0.000  0.000  0.000  0.058
tot  0.000  0.000  0.059  0.000  0.000  0.000  0.000  0.000  0.000  0.059
 
band   7 # energy    1.09630094 # occ.  0.00000000
 
ion      s     py     pz     px    dxy    dyz    dz2    dxz    dx2    tot
  1  0.123  0.000  0.000  0.000  0.000  0.000  0.005  0.000  0.000  0.129
  2  0.092  0.000  0.000  0.000  0.000  0.000  0.000  0.000  0.000  0.092
tot  0.216  0.000  0.000  0.000  0.000  0.000  0.005  0.000  0.000  0.221
 
band   8 # energy    1.66696730 # occ.  0.00000000
 
ion      s     py     pz     px    dxy    dyz    dz2    dxz    dx2    tot
  1  0.047  0.000  0.000  0.000  0.000  0.000  0.000  0.000  0.000  0.048
  2  0.025  0.000  0.000  0.000  0.000  0.000  0.000  0.000  0.000  0.025
tot  0.073  0.000  0.000  0.000  0.000  0.000  0.000  0.000  0.000  0.073
 
band   9 # energy    2.38417429 # occ.  0.00000000
 
ion      s     py     pz     px    dxy    dyz    dz2    dxz    dx2    tot
  1  0.000  0.000  0.002  0.000  0.000  0.000  0.000  0.000  0.000  0.002
  2  0.000  0.000  0.063  0.000  0.000  0.000  0.000  0.000  0.000  0.063
tot  0.000  0.000  0.065  0.000  0.000  0.000  0.000  0.000  0.000  0.065
 
band  10 # energy    3.08626064 # occ.  0.00000000
 
ion      s     py     pz     px    dxy    dyz    dz2    dxz    dx2    tot
  1  0.048  0.000  0.000  0.000  0.000  0.000  0.002  0.000  0.000  0.050
  2  0.011  0.000  0.000  0.000  0.000  0.000  0.000  0.000  0.000  0.011
tot  0.060  0.000  0.000  0.000  0.000  0.000  0.002  0.000  0.000  0.061
 
band  11 # energy    3.94828807 # occ.  0.00000000
 
ion      s     py     pz     px    dxy    dyz    dz2    dxz    dx2    tot
  1  0.000  0.431  0.000  0.001  0.000  0.000  0.000  0.000  0.114  0.547
  2  0.000  0.051  0.000  0.000  0.000  0.000  0.000  0.000  0.000  0.051
tot  0.000  0.482  0.000  0.002  0.000  0.000  0.000  0.000  0.114  0.598
 
band  12 # energy    3.94828907 # occ.  0.00000000
 
ion      s     py     pz     px    dxy    dyz    dz2    dxz    dx2    tot
  1  0.000  0.001  0.000  0.431  0.114  0.000  0.000  0.000  0.000  0.547
  2  0.000  0.000  0.000  0.051  0.000  0.000  0.000  0.000  0.000  0.051
tot  0.000  0.002  0.000  0.482  0.114  0.000  0.000  0.000  0.000  0.598
 
band  13 # energy    3.99479648 # occ.  0.00000000
 
ion      s     py     pz     px    dxy    dyz    dz2    dxz    dx2    tot
  1  0.000  0.000  0.059  0.000  0.000  0.000  0.000  0.000  0.000  0.059
  2  0.000  0.000  0.179  0.000  0.000  0.000  0.000  0.000  0.000  0.179
tot  0.000  0.000  0.238  0.000  0.000  0.000  0.000  0.000  0.000  0.238
 
band  14 # energy    5.35931427 # occ.  0.00000000
 
ion      s     py     pz     px    dxy    dyz    dz2    dxz    dx2    tot
  1  0.030  0.000  0.000  0.000  0.000  0.000  0.010  0.000  0.000  0.040
  2  0.002  0.000  0.000  0.000  0.000  0.000  0.000  0.000  0.000  0.002
tot  0.032  0.000  0.000  0.000  0.000  0.000  0.010  0.000  0.000  0.042
 
band  15 # energy    5.64381291 # occ.  0.00000000
 
ion      s     py     pz     px    dxy    dyz    dz2    dxz    dx2    tot
  1  0.000  0.000  0.151  0.000  0.000  0.000  0.000  0.000  0.000  0.151
  2  0.000  0.000  0.102  0.000  0.000  0.000  0.000  0.000  0.000  0.102
tot  0.000  0.000  0.253  0.000  0.000  0.000  0.000  0.000  0.000  0.253
 
band  16 # energy    8.30767106 # occ.  0.00000000
 
ion      s     py     pz     px    dxy    dyz    dz2    dxz    dx2    tot
  1  0.000  0.000  0.110  0.000  0.000  0.000  0.000  0.000  0.000  0.110
  2  0.000  0.000  0.007  0.000  0.000  0.000  0.000  0.000  0.000  0.007
tot  0.000  0.000  0.117  0.000  0.000  0.000  0.000  0.000  0.000  0.117
 

 k-point    2 :    0.11111111-0.00000000 0.00000000     weight = 0.07407407

band   1 # energy  -17.29230827 # occ.  2.00000000
 
ion      s     py     pz     px    dxy    dyz    dz2    dxz    dx2    tot
  1  0.375  0.002  0.000  0.006  0.000  0.000  0.009  0.000  0.000  0.392
  2  0.280  0.001  0.000  0.002  0.000  0.000  0.000  0.000  0.000  0.282
tot  0.654  0.003  0.000  0.008  0.000  0.000  0.009  0.000  0.000  0.674
 
band   2 # energy   -6.98538258 # occ.  2.00000000
 
ion      s     py     pz     px    dxy    dyz    dz2    dxz    dx2    tot
  1  0.000  0.000  0.214  0.000  0.000  0.001  0.000  0.002  0.000  0.217
  2  0.000  0.000  0.185  0.000  0.000  0.000  0.000  0.000  0.000  0.185
tot  0.000  0.000  0.400  0.000  0.000  0.001  0.000  0.002  0.000  0.402
 
band   3 # energy   -5.58444909 # occ.  2.00000000
 
ion      s     py     pz     px    dxy    dyz    dz2    dxz    dx2    tot
  1  0.068  0.056  0.000  0.167  0.057  0.000  0.001  0.000  0.019  0.367
  2  0.063  0.084  0.000  0.253  0.000  0.000  0.000  0.000  0.000  0.401
tot  0.131  0.140  0.000  0.420  0.057  0.000  0.001  0.000  0.019  0.768
 
band   4 # energy   -4.78793630 # occ.  2.00000000
 
ion      s     py     pz     px    dxy    dyz    dz2    dxz    dx2    tot
  1  0.000  0.198  0.000  0.066  0.021  0.000  0.000  0.000  0.063  0.348
  2  0.000  0.320  0.000  0.107  0.000  0.000  0.000  0.000  0.000  0.426
tot  0.000  0.518  0.000  0.173  0.021  0.000  0.000  0.000  0.063  0.774
 
band   5 # energy   -0.26989755 # occ.  0.00000000
 
ion      s     py     pz     px    dxy    dyz    dz2    dxz    dx2    tot
  1  0.050  0.003  0.000  0.009  0.003  0.000  0.057  0.000  0.001  0.124
  2  0.159  0.012  0.000  0.037  0.000  0.000  0.000  0.000  0.000  0.208
tot  0.208  0.015  0.000  0.046  0.003  0.000  0.057  0.000  0.001  0.332
 
band   6 # energy    1.22887659 # occ.  0.00000000
 
ion      s     py     pz     px    dxy    dyz    dz2    dxz    dx2    tot
  1  0.000  0.000  0.000  0.000  0.000  0.000  0.000  0.001  0.000  0.001
  2  0.000  0.000  0.073  0.000  0.000  0.000  0.000  0.000  0.000  0.073
tot  0.000  0.000  0.073  0.000  0.000  0.000  0.000  0.001  0.000  0.074
 
band   7 # energy    1.44781019 # occ.  0.00000000
 
ion      s     py     pz     px    dxy    dyz    dz2    dxz    dx2    tot
  1  0.103  0.002  0.000  0.007  0.004  0.000  0.010  0.000  0.001  0.128
  2  0.078  0.007  0.000  0.021  0.000  0.000  0.000  0.000  0.000  0.105
tot  0.180  0.009  0.000  0.028  0.004  0.000  0.010  0.000  0.001  0.233
 
band   8 # energy    1.94106237 # occ.  0.00000000
 
ion      s     py     pz     px    dxy    dyz    dz2    dxz    dx2    tot
  1  0.065  0.002  0.000  0.005  0.003  0.000  0.002  0.000  0.001  0.078
  2  0.033  0.003  0.000  0.010  0.000  0.000  0.000  0.000  0.000  0.047
tot  0.098  0.005  0.000  0.015  0.003  0.000  0.002  0.000  0.001  0.125
 
band   9 # energy    2.55205888 # occ.  0.00000000
 
ion      s     py     pz     px    dxy    dyz    dz2    dxz    dx2    tot
  1  0.000  0.000  0.009  0.000  0.000  0.000  0.000  0.001  0.000  0.010
  2  0.000  0.000  0.084  0.000  0.000  0.000  0.000  0.000  0.000  0.084
tot  0.000  0.000  0.092  0.000  0.000  0.000  0.000  0.001  0.000  0.093
 
band  10 # energy    3.26180517 # occ.  0.00000000
 
ion      s     py     pz     px    dxy    dyz    dz2    dxz    dx2    tot
  1  0.047  0.014  0.000  0.043  0.020  0.000  0.002  0.000  0.007  0.133
  2  0.003  0.004  0.000  0.012  0.000  0.000  0.000  0.000  0.000  0.018
tot  0.049  0.018  0.000  0.055  0.020  0.000  0.002  0.000  0.007  0.151
 
band  11 # energy    3.73392285 # occ.  0.00000000
 
ion      s     py     pz     px    dxy    dyz    dz2    dxz    dx2    tot
  1  0.019  0.066  0.000  0.199  0.065  0.000  0.004  0.000  0.022  0.375
  2  0.032  0.013  0.000  0.040  0.000  0.000  0.000  0.000  0.000  0.086
tot  0.050  0.080  0.000  0.240  0.065  0.000  0.004  0.000  0.022  0.460
 
band  12 # energy    3.91023923 # occ.  0.00000000
 
ion      s     py     pz     px    dxy    dyz    dz2    dxz    dx2    tot
  1  0.000  0.000  0.105  0.000  0.000  0.001  0.000  0.004  0.000  0.110
  2  0.000  0.000  0.175  0.000  0.000  0.000  0.000  0.000  0.000  0.175
tot  0.000  0.000  0.280  0.000  0.000  0.001  0.000  0.004  0.000  0.285
 
band  13 # energy    4.63337182 # occ.  0.00000000
 
ion      s     py     pz     px    dxy    dyz    dz2    dxz    dx2    tot
  1  0.000  0.305  0.000  0.102  0.033  0.000  0.000  0.000  0.098  0.537
  2  0.000  0.057  0.000  0.019  0.000  0.000  0.000  0.000  0.000  0.076
tot  0.000  0.362  0.000  0.121  0.033  0.000  0.000  0.000  0.098  0.614
 
band  14 # energy    5.57585982 # occ.  0.00000000
 
ion      s     py     pz     px    dxy    dyz    dz2    dxz    dx2    tot
  1  0.000  0.000  0.130  0.000  0.000  0.001  0.000  0.003  0.000  0.134
  2  0.000  0.000  0.042  0.000  0.000  0.000  0.000  0.000  0.000  0.042
tot  0.000  0.000  0.172  0.000  0.000  0.001  0.000  0.003  0.000  0.176
 
band  15 # energy    5.62017337 # occ.  0.00000000
 
ion      s     py     pz     px    dxy    dyz    dz2    dxz    dx2    tot
  1  0.031  0.001  0.000  0.003  0.000  0.000  0.009  0.000  0.000  0.044
  2  0.003  0.001  0.000  0.002  0.000  0.000  0.000  0.000  0.000  0.005
tot  0.033  0.002  0.000  0.005  0.000  0.000  0.009  0.000  0.000  0.049
 
band  16 # energy    8.35338106 # occ.  0.00000000
 
ion      s     py     pz     px    dxy    dyz    dz2    dxz    dx2    tot
  1  0.000  0.000  0.087  0.000  0.000  0.002  0.000  0.006  0.000  0.095
  2  0.000  0.000  0.000  0.000  0.000  0.000  0.000  0.000  0.000  0.000
tot  0.000  0.000  0.087  0.000  0.000  0.002  0.000  0.006  0.000  0.095
 

 k-point    3 :    0.22222222-0.00000000 0.00000000     weight = 0.07407407

band   1 # energy  -16.70809964 # occ.  2.00000000
 
ion      s     py     pz     px    dxy    dyz    dz2    dxz    dx2    tot
  1  0.345  0.008  0.000  0.023  0.002  0.000  0.007  0.000  0.001  0.386
  2  0.284  0.002  0.000  0.006  0.000  0.000  0.000  0.000  0.000  0.292
tot  0.629  0.010  0.000  0.030  0.002  0.000  0.007  0.000  0.001  0.678
 
band   2 # energy   -7.72619084 # occ.  2.00000000
 
ion      s     py     pz     px    dxy    dyz    dz2    dxz    dx2    tot
  1  0.153  0.050  0.000  0.151  0.035  0.000  0.000  0.000  0.012  0.401
  2  0.109  0.058  0.000  0.175  0.000  0.000  0.000  0.000  0.000  0.343
tot  0.262  0.109  0.000  0.326  0.035  0.000  0.000  0.000  0.012  0.743
 
band   3 # energy   -6.36130399 # occ.  2.00000000
 
ion      s     py     pz     px    dxy    dyz    dz2    dxz    dx2    tot
  1  0.000  0.000  0.202  0.000  0.000  0.002  0.000  0.007  0.000  0.211
  2  0.000  0.000  0.199  0.000  0.000  0.000  0.000  0.000  0.000  0.199
tot  0.000  0.000  0.401  0.000  0.000  0.002  0.000  0.007  0.000  0.410
 
band   4 # energy   -5.48435356 # occ.  2.00000000
 
ion      s     py     pz     px    dxy    dyz    dz2    dxz    dx2    tot
  1  0.000  0.227  0.000  0.076  0.014  0.000  0.000  0.000  0.041  0.357
  2  0.000  0.296  0.000  0.099  0.000  0.000  0.000  0.000  0.000  0.394
tot  0.000  0.523  0.000  0.174  0.014  0.000  0.000  0.000  0.041  0.751
 
band   5 # energy    0.34283117 # occ.  0.00000000
 
ion      s     py     pz     px    dxy    dyz    dz2    dxz    dx2    tot
  1  0.064  0.010  0.000  0.031  0.015  0.000  0.058  0.000  0.005  0.183
  2  0.128  0.017  0.000  0.051  0.000  0.000  0.000  0.000  0.000  0.196
tot  0.192  0.028  0.000  0.083  0.015  0.000  0.058  0.000  0.005  0.380
 
band   6 # energy    1.58900468 # occ.  0.00000000
 
ion      s     py     pz     px    dxy    dyz    dz2    dxz    dx2    tot
  1  0.000  0.000  0.038  0.000  0.000  0.003  0.000  0.008  0.000  0.049
  2  0.000  0.000  0.189  0.000  0.000  0.000  0.000  0.000  0.000  0.189
tot  0.000  0.000  0.227  0.000  0.000  0.003  0.000  0.008  0.000  0.238
 
band   7 # energy    1.75080544 # occ.  0.00000000
 
ion      s     py     pz     px    dxy    dyz    dz2    dxz    dx2    tot
  1  0.116  0.013  0.000  0.040  0.032  0.000  0.005  0.000  0.011  0.217
  2  0.030  0.007  0.000  0.022  0.000  0.000  0.000  0.000  0.000  0.059
tot  0.145  0.021  0.000  0.062  0.032  0.000  0.005  0.000  0.011  0.276
 
band   8 # energy    2.51481672 # occ.  0.00000000
 
ion      s     py     pz     px    dxy    dyz    dz2    dxz    dx2    tot
  1  0.010  0.002  0.000  0.005  0.005  0.000  0.001  0.000  0.002  0.025
  2  0.001  0.001  0.000  0.003  0.000  0.000  0.000  0.000  0.000  0.005
tot  0.011  0.003  0.000  0.009  0.005  0.000  0.001  0.000  0.002  0.030
 
band   9 # energy    2.70583204 # occ.  0.00000000
 
ion      s     py     pz     px    dxy    dyz    dz2    dxz    dx2    tot
  1  0.000  0.000  0.100  0.000  0.000  0.003  0.000  0.008  0.000  0.110
  2  0.000  0.000  0.091  0.000  0.000  0.000  0.000  0.000  0.000  0.091
tot  0.000  0.000  0.191  0.000  0.000  0.003  0.000  0.008  0.000  0.202
 
band  10 # energy    3.65426854 # occ.  0.00000000
 
ion      s     py     pz     px    dxy    dyz    dz2    dxz    dx2    tot
  1  0.009  0.010  0.000  0.029  0.021  0.000  0.016  0.000  0.007  0.091
  2  0.016  0.011  0.000  0.034  0.000  0.000  0.000  0.000  0.000  0.062
tot  0.025  0.021  0.000  0.063  0.021  0.000  0.016  0.000  0.007  0.153
 
band  11 # energy    3.79497304 # occ.  0.00000000
 
ion      s     py     pz     px    dxy    dyz    dz2    dxz    dx2    tot
  1  0.000  0.000  0.090  0.000  0.000  0.002  0.000  0.005  0.000  0.096
  2  0.000  0.000  0.018  0.000  0.000  0.000  0.000  0.000  0.000  0.018
tot  0.000  0.000  0.108  0.000  0.000  0.002  0.000  0.005  0.000  0.114
 
band  12 # energy    4.69864348 # occ.  0.00000000
 
ion      s     py     pz     px    dxy    dyz    dz2    dxz    dx2    tot
  1  0.049  0.022  0.000  0.066  0.031  0.000  0.014  0.000  0.010  0.191
  2  0.054  0.031  0.000  0.093  0.000  0.000  0.000  0.000  0.000  0.178
tot  0.103  0.053  0.000  0.159  0.031  0.000  0.014  0.000  0.010  0.370
 
band  13 # energy    5.85968340 # occ.  0.00000000
 
ion      s     py     pz     px    dxy    dyz    dz2    dxz    dx2    tot
  1  0.000  0.000  0.063  0.000  0.000  0.002  0.000  0.005  0.000  0.069
  2  0.000  0.000  0.001  0.000  0.000  0.000  0.000  0.000  0.000  0.001
tot  0.000  0.000  0.064  0.000  0.000  0.002  0.000  0.005  0.000  0.070
 
band  14 # energy    6.36589998 # occ.  0.00000000
 
ion      s     py     pz     px    dxy    dyz    dz2    dxz    dx2    tot
  1  0.000  0.265  0.000  0.088  0.041  0.000  0.000  0.000  0.122  0.517
  2  0.000  0.094  0.000  0.031  0.000  0.000  0.000  0.000  0.000  0.125
tot  0.000  0.359  0.000  0.120  0.041  0.000  0.000  0.000  0.122  0.642
 
band  15 # energy    6.42076806 # occ.  0.00000000
 
ion      s     py     pz     px    dxy    dyz    dz2    dxz    dx2    tot
  1  0.035  0.004  0.000  0.011  0.003  0.000  0.005  0.000  0.001  0.058
  2  0.005  0.005  0.000  0.014  0.000  0.000  0.000  0.000  0.000  0.024
tot  0.040  0.008  0.000  0.025  0.003  0.000  0.005  0.000  0.001  0.082
 
band  16 # energy    8.51595716 # occ.  0.00000000
 
ion      s     py     pz     px    dxy    dyz    dz2    dxz    dx2    tot
  1  0.000  0.000  0.042  0.000  0.000  0.008  0.000  0.025  0.000  0.075
  2  0.000  0.000  0.028  0.000  0.000  0.000  0.000  0.000  0.000  0.028
tot  0.000  0.000  0.070  0.000  0.000  0.008  0.000  0.025  0.000  0.103
 

 k-point    4 :    0.33333333-0.00000000 0.00000000     weight = 0.07407407

band   1 # energy  -15.77253236 # occ.  2.00000000
 
ion      s     py     pz     px    dxy    dyz    dz2    dxz    dx2    tot
  1  0.293  0.017  0.000  0.051  0.005  0.000  0.005  0.000  0.002  0.372
  2  0.298  0.004  0.000  0.012  0.000  0.000  0.000  0.000  0.000  0.314
tot  0.591  0.021  0.000  0.063  0.005  0.000  0.005  0.000  0.002  0.686
 
band   2 # energy   -9.92459397 # occ.  2.00000000
 
ion      s     py     pz     px    dxy    dyz    dz2    dxz    dx2    tot
  1  0.236  0.043  0.000  0.129  0.018  0.000  0.000  0.000  0.006  0.431
  2  0.115  0.044  0.000  0.131  0.000  0.000  0.000  0.000  0.000  0.290
tot  0.351  0.087  0.000  0.260  0.018  0.000  0.000  0.000  0.006  0.721
 
band   3 # energy   -6.12822943 # occ.  2.00000000
 
ion      s     py     pz     px    dxy    dyz    dz2    dxz    dx2    tot
  1  0.000  0.249  0.000  0.083  0.007  0.000  0.000  0.000  0.022  0.362
  2  0.000  0.279  0.000  0.093  0.000  0.000  0.000  0.000  0.000  0.372
tot  0.000  0.528  0.000  0.176  0.007  0.000  0.000  0.000  0.022  0.734
 
band   4 # energy   -5.39777635 # occ.  2.00000000
 
ion      s     py     pz     px    dxy    dyz    dz2    dxz    dx2    tot
  1  0.000  0.000  0.177  0.000  0.000  0.005  0.000  0.014  0.000  0.197
  2  0.000  0.000  0.229  0.000  0.000  0.000  0.000  0.000  0.000  0.229
tot  0.000  0.000  0.407  0.000  0.000  0.005  0.000  0.014  0.000  0.426
 
band   5 # energy    0.32854984 # occ.  0.00000000
 
ion      s     py     pz     px    dxy    dyz    dz2    dxz    dx2    tot
  1  0.152  0.019  0.000  0.056  0.058  0.000  0.042  0.000  0.019  0.345
  2  0.128  0.016  0.000  0.049  0.000  0.000  0.000  0.000  0.000  0.193
tot  0.280  0.035  0.000  0.105  0.058  0.000  0.042  0.000  0.019  0.538
 
band   6 # energy    0.61719946 # occ.  0.00000000
 
ion      s     py     pz     px    dxy    dyz    dz2    dxz    dx2    tot
  1  0.000  0.000  0.219  0.000  0.000  0.009  0.000  0.027  0.000  0.254
  2  0.000  0.000  0.203  0.000  0.000  0.000  0.000  0.000  0.000  0.203
tot  0.000  0.000  0.422  0.000  0.000  0.009  0.000  0.027  0.000  0.458
 
band   7 # energy    2.37892804 # occ.  0.00000000
 
ion      s     py     pz     px    dxy    dyz    dz2    dxz    dx2    tot
  1  0.036  0.003  0.000  0.008  0.015  0.000  0.015  0.000  0.005  0.083
  2  0.003  0.006  0.000  0.019  0.000  0.000  0.000  0.000  0.000  0.028
tot  0.039  0.009  0.000  0.027  0.015  0.000  0.015  0.000  0.005  0.111
 
band   8 # energy    3.37409744 # occ.  0.00000000
 
ion      s     py     pz     px    dxy    dyz    dz2    dxz    dx2    tot
  1  0.000  0.000  0.043  0.000  0.000  0.001  0.000  0.002  0.000  0.046
  2  0.000  0.000  0.003  0.000  0.000  0.000  0.000  0.000  0.000  0.003
tot  0.000  0.000  0.047  0.000  0.000  0.001  0.000  0.002  0.000  0.049
 
band   9 # energy    3.66952849 # occ.  0.00000000
 
ion      s     py     pz     px    dxy    dyz    dz2    dxz    dx2    tot
  1  0.001  0.000  0.000  0.001  0.001  0.000  0.003  0.000  0.000  0.008
  2  0.001  0.001  0.000  0.004  0.000  0.000  0.000  0.000  0.000  0.007
tot  0.003  0.002  0.000  0.005  0.001  0.000  0.003  0.000  0.000  0.014
 
band  10 # energy    4.70532342 # occ.  0.00000000
 
ion      s     py     pz     px    dxy    dyz    dz2    dxz    dx2    tot
  1  0.000  0.000  0.028  0.000  0.000  0.001  0.000  0.002  0.000  0.030
  2  0.000  0.000  0.007  0.000  0.000  0.000  0.000  0.000  0.000  0.007
tot  0.000  0.000  0.035  0.000  0.000  0.001  0.000  0.002  0.000  0.037
 
band  11 # energy    4.79166683 # occ.  0.00000000
 
ion      s     py     pz     px    dxy    dyz    dz2    dxz    dx2    tot
  1  0.003  0.002  0.000  0.007  0.009  0.000  0.023  0.000  0.003  0.047
  2  0.011  0.014  0.000  0.043  0.000  0.000  0.000  0.000  0.000  0.068
tot  0.014  0.017  0.000  0.050  0.009  0.000  0.023  0.000  0.003  0.115
 
band  12 # energy    6.07374210 # occ.  0.00000000
 
ion      s     py     pz     px    dxy    dyz    dz2    dxz    dx2    tot
  1  0.029  0.011  0.000  0.033  0.019  0.000  0.030  0.000  0.006  0.129
  2  0.024  0.045  0.000  0.136  0.000  0.000  0.000  0.000  0.000  0.205
tot  0.053  0.056  0.000  0.169  0.019  0.000  0.030  0.000  0.006  0.333
 
band  13 # energy    6.64552231 # occ.  0.00000000
 
ion      s     py     pz     px    dxy    dyz    dz2    dxz    dx2    tot
  1  0.000  0.000  0.028  0.000  0.000  0.003  0.000  0.008  0.000  0.039
  2  0.000  0.000  0.036  0.000  0.000  0.000  0.000  0.000  0.000  0.036
tot  0.000  0.000  0.065  0.000  0.000  0.003  0.000  0.008  0.000  0.076
 
band  14 # energy    7.60529841 # occ.  0.00000000
 
ion      s     py     pz     px    dxy    dyz    dz2    dxz    dx2    tot
  1  0.021  0.004  0.000  0.011  0.002  0.000  0.004  0.000  0.001  0.043
  2  0.001  0.008  0.000  0.023  0.000  0.000  0.000  0.000  0.000  0.031
tot  0.022  0.011  0.000  0.034  0.002  0.000  0.004  0.000  0.001  0.074
 
band  15 # energy    8.19470439 # occ.  0.00000000
 
ion      s     py     pz     px    dxy    dyz    dz2    dxz    dx2    tot
  1  0.000  0.000  0.033  0.000  0.000  0.008  0.000  0.024  0.000  0.065
  2  0.000  0.000  0.052  0.000  0.000  0.000  0.000  0.000  0.000  0.052
tot  0.000  0.000  0.085  0.000  0.000  0.008  0.000  0.024  0.000  0.117
 
band  16 # energy    8.56350080 # occ.  0.00000000
 
ion      s     py     pz     px    dxy    dyz    dz2    dxz    dx2    tot
  1  0.000  0.225  0.000  0.075  0.045  0.000  0.000  0.000  0.135  0.480
  2  0.000  0.138  0.000  0.046  0.000  0.000  0.000  0.000  0.000  0.185
tot  0.000  0.363  0.000  0.121  0.045  0.000  0.000  0.000  0.135  0.665
 

 k-point    5 :    0.44444444-0.00000000 0.00000000     weight = 0.07407407

band   1 # energy  -14.69017686 # occ.  2.00000000
 
ion      s     py     pz     px    dxy    dyz    dz2    dxz    dx2    tot
  1  0.202  0.028  0.000  0.085  0.011  0.000  0.003  0.000  0.004  0.333
  2  0.351  0.003  0.000  0.010  0.000  0.000  0.000  0.000  0.000  0.364
tot  0.553  0.032  0.000  0.095  0.011  0.000  0.003  0.000  0.004  0.698
 
band   2 # energy  -11.68813210 # occ.  2.00000000
 
ion      s     py     pz     px    dxy    dyz    dz2    dxz    dx2    tot
  1  0.341  0.032  0.000  0.097  0.004  0.000  0.001  0.000  0.001  0.476
  2  0.070  0.039  0.000  0.116  0.000  0.000  0.000  0.000  0.000  0.225
tot  0.411  0.071  0.000  0.213  0.004  0.000  0.001  0.000  0.001  0.702
 
band   3 # energy   -6.49312637 # occ.  2.00000000
 
ion      s     py     pz     px    dxy    dyz    dz2    dxz    dx2    tot
  1  0.000  0.260  0.000  0.087  0.004  0.000  0.000  0.000  0.012  0.364
  2  0.000  0.272  0.000  0.091  0.000  0.000  0.000  0.000  0.000  0.362
tot  0.000  0.532  0.000  0.177  0.004  0.000  0.000  0.000  0.012  0.726
 
band   4 # energy   -4.38302589 # occ.  2.00000000
 
ion      s     py     pz     px    dxy    dyz    dz2    dxz    dx2    tot
  1  0.000  0.000  0.128  0.000  0.000  0.008  0.000  0.023  0.000  0.160
  2  0.000  0.000  0.292  0.000  0.000  0.000  0.000  0.000  0.000  0.292
tot  0.000  0.000  0.420  0.000  0.000  0.008  0.000  0.023  0.000  0.451
 
band   5 # energy   -0.77337102 # occ.  0.00000000
 
ion      s     py     pz     px    dxy    dyz    dz2    dxz    dx2    tot
  1  0.000  0.000  0.301  0.000  0.000  0.009  0.000  0.026  0.000  0.335
  2  0.000  0.000  0.098  0.000  0.000  0.000  0.000  0.000  0.000  0.098
tot  0.000  0.000  0.399  0.000  0.000  0.009  0.000  0.026  0.000  0.433
 
band   6 # energy    0.08079829 # occ.  0.00000000
 
ion      s     py     pz     px    dxy    dyz    dz2    dxz    dx2    tot
  1  0.179  0.016  0.000  0.048  0.075  0.000  0.033  0.000  0.025  0.375
  2  0.122  0.014  0.000  0.043  0.000  0.000  0.000  0.000  0.000  0.178
tot  0.300  0.030  0.000  0.091  0.075  0.000  0.033  0.000  0.025  0.554
 
band   7 # energy    3.79297424 # occ.  0.00000000
 
ion      s     py     pz     px    dxy    dyz    dz2    dxz    dx2    tot
  1  0.011  0.001  0.000  0.003  0.007  0.000  0.033  0.000  0.002  0.058
  2  0.004  0.015  0.000  0.044  0.000  0.000  0.000  0.000  0.000  0.062
tot  0.015  0.015  0.000  0.046  0.007  0.000  0.033  0.000  0.002  0.120
 
band   8 # energy    4.79646560 # occ.  0.00000000
 
ion      s     py     pz     px    dxy    dyz    dz2    dxz    dx2    tot
  1  0.000  0.000  0.025  0.000  0.000  0.000  0.000  0.001  0.000  0.026
  2  0.000  0.000  0.037  0.000  0.000  0.000  0.000  0.000  0.000  0.037
tot  0.000  0.000  0.062  0.000  0.000  0.000  0.000  0.001  0.000  0.063
 
band   9 # energy    5.28058288 # occ.  0.00000000
 
ion      s     py     pz     px    dxy    dyz    dz2    dxz    dx2    tot
  1  0.000  0.000  0.000  0.001  0.002  0.000  0.012  0.000  0.001  0.017
  2  0.001  0.008  0.000  0.023  0.000  0.000  0.000  0.000  0.000  0.031
tot  0.001  0.008  0.000  0.024  0.002  0.000  0.012  0.000  0.001  0.048
 
band  10 # energy    5.65905740 # occ.  0.00000000
 
ion      s     py     pz     px    dxy    dyz    dz2    dxz    dx2    tot
  1  0.007  0.003  0.000  0.008  0.004  0.000  0.024  0.000  0.001  0.048
  2  0.002  0.019  0.000  0.057  0.000  0.000  0.000  0.000  0.000  0.078
tot  0.009  0.022  0.000  0.065  0.004  0.000  0.024  0.000  0.001  0.126
 
band  11 # energy    6.01630743 # occ.  0.00000000
 
ion      s     py     pz     px    dxy    dyz    dz2    dxz    dx2    tot
  1  0.000  0.000  0.012  0.000  0.000  0.001  0.000  0.004  0.000  0.017
  2  0.000  0.000  0.047  0.000  0.000  0.000  0.000  0.000  0.000  0.047
tot  0.000  0.000  0.059  0.000  0.000  0.001  0.000  0.004  0.000  0.065
 
band  12 # energy    6.56744491 # occ.  0.00000000
 
ion      s     py     pz     px    dxy    dyz    dz2    dxz    dx2    tot
  1  0.005  0.001  0.000  0.002  0.002  0.000  0.006  0.000  0.001  0.016
  2  0.004  0.003  0.000  0.009  0.000  0.000  0.000  0.000  0.000  0.016
tot  0.009  0.004  0.000  0.011  0.002  0.000  0.006  0.000  0.001  0.032
 
band  13 # energy    6.82332909 # occ.  0.00000000
 
ion      s     py     pz     px    dxy    dyz    dz2    dxz    dx2    tot
  1  0.000  0.000  0.036  0.000  0.000  0.001  0.000  0.002  0.000  0.040
  2  0.000  0.000  0.018  0.000  0.000  0.000  0.000  0.000  0.000  0.018
tot  0.000  0.000  0.054  0.000  0.000  0.001  0.000  0.002  0.000  0.057
 
band  14 # energy    7.42081100 # occ.  0.00000000
 
ion      s     py     pz     px    dxy    dyz    dz2    dxz    dx2    tot
  1  0.003  0.001  0.000  0.002  0.002  0.000  0.004  0.000  0.001  0.012
  2  0.000  0.005  0.000  0.016  0.000  0.000  0.000  0.000  0.000  0.022
tot  0.003  0.006  0.000  0.018  0.002  0.000  0.004  0.000  0.001  0.034
 
band  15 # energy    7.74794774 # occ.  0.00000000
 
ion      s     py     pz     px    dxy    dyz    dz2    dxz    dx2    tot
  1  0.000  0.000  0.014  0.000  0.000  0.003  0.000  0.010  0.000  0.027
  2  0.000  0.000  0.023  0.000  0.000  0.000  0.000  0.000  0.000  0.023
tot  0.000  0.000  0.037  0.000  0.000  0.003  0.000  0.010  0.000  0.050
 
band  16 # energy    7.99386103 # occ.  0.00000000
 
ion      s     py     pz     px    dxy    dyz    dz2    dxz    dx2    tot
  1  0.014  0.002  0.000  0.007  0.010  0.000  0.018  0.000  0.003  0.054
  2  0.004  0.027  0.000  0.080  0.000  0.000  0.000  0.000  0.000  0.110
tot  0.018  0.029  0.000  0.087  0.010  0.000  0.018  0.000  0.003  0.164
 

 k-point    6 :    0.11111111 0.11111111 0.00000000     weight = 0.07407407

band   1 # energy  -16.90141012 # occ.  2.00000000
 
ion      s     py     pz     px    dxy    dyz    dz2    dxz    dx2    tot
  1  0.355  0.018  0.000  0.006  0.000  0.000  0.008  0.000  0.001  0.388
  2  0.282  0.005  0.000  0.002  0.000  0.000  0.000  0.000  0.000  0.288
tot  0.637  0.023  0.000  0.008  0.000  0.000  0.008  0.000  0.001  0.677
 
band   2 # energy   -7.00685154 # occ.  2.00000000
 
ion      s     py     pz     px    dxy    dyz    dz2    dxz    dx2    tot
  1  0.133  0.135  0.000  0.069  0.014  0.000  0.000  0.000  0.041  0.392
  2  0.106  0.189  0.000  0.070  0.000  0.000  0.000  0.000  0.000  0.365
tot  0.239  0.324  0.000  0.139  0.014  0.000  0.000  0.000  0.041  0.758
 
band   3 # energy   -6.56602788 # occ.  2.00000000
 
ion      s     py     pz     px    dxy    dyz    dz2    dxz    dx2    tot
  1  0.000  0.000  0.206  0.000  0.000  0.005  0.000  0.002  0.000  0.213
  2  0.000  0.000  0.194  0.000  0.000  0.000  0.000  0.000  0.000  0.194
tot  0.000  0.000  0.401  0.000  0.000  0.005  0.000  0.002  0.000  0.407
 
band   4 # energy   -5.49758839 # occ.  2.00000000
 
ion      s     py     pz     px    dxy    dyz    dz2    dxz    dx2    tot
  1  0.005  0.105  0.000  0.189  0.042  0.000  0.000  0.000  0.016  0.358
  2  0.001  0.105  0.000  0.277  0.000  0.000  0.000  0.000  0.000  0.384