<?xml version="1.0" encoding="ISO-8859-1"?>
<modeling>
 <generator>
  <i name="program" type="string">vasp </i>
  <i name="version" type="string">5.3.5  </i>
  <i name="subversion" type="string">31Mar14 (build Jul 11 2014 22:06:56) complex                          parallel </i>
  <i name="platform" type="string">LinuxIFC </i>
  <i name="date" type="string">2020 11 26 </i>
  <i name="time" type="string">17:25:48 </i>
 </generator>
 <incar>
  <i type="int" name="ISTART">     0</i>
  <i type="string" name="PREC">accurate</i>
  <i type="string" name="ALGO"> Normal</i>
  <i type="int" name="IBRION">     2</i>
  <i name="EDIFF">      0.00000100</i>
  <i name="EDIFFG">     -0.00000100</i>
  <i type="int" name="NSW">    50</i>
  <i type="int" name="ISIF">     2</i>
  <i name="ENCUT">    520.00000000</i>
  <i type="int" name="NBANDS">    16</i>
  <i type="int" name="ISMEAR">     0</i>
  <i name="SIGMA">      0.05000000</i>
  <i type="logical" name="LORBIT"> F  </i>
 </incar>
 <kpoints>
  <generation param="Gamma">
   <v type="int" name="divisions">       9        9        1 </v>
   <v name="usershift">      0.00000000       0.00000000       0.00000000 </v>
   <v name="genvec1">      0.11111111      -0.00000000       0.00000000 </v>
   <v name="genvec2">      0.00000000       0.11111111       0.00000000 </v>
   <v name="genvec3">      0.00000000       0.00000000       1.00000000 </v>
   <v name="shift">      0.00000000       0.00000000       0.00000000 </v>
  </generation>
  <varray name="kpointlist" >
   <v>       0.00000000       0.00000000       0.00000000 </v>
   <v>       0.11111111      -0.00000000       0.00000000 </v>
   <v>       0.22222222      -0.00000000       0.00000000 </v>
   <v>       0.33333333      -0.00000000       0.00000000 </v>
   <v>       0.44444444      -0.00000000       0.00000000 </v>
   <v>       0.11111111       0.11111111       0.00000000 </v>
   <v>       0.22222222       0.11111111       0.00000000 </v>
   <v>       0.33333333       0.11111111       0.00000000 </v>
   <v>       0.44444444       0.11111111       0.00000000 </v>
   <v>       0.22222222       0.22222222       0.00000000 </v>
   <v>       0.33333333       0.22222222       0.00000000 </v>
   <v>       0.33333333       0.33333333       0.00000000 </v>
  </varray>
  <varray name="weights" >
   <v>       0.01234568 </v>
   <v>       0.07407407 </v>
   <v>       0.07407407 </v>
   <v>       0.07407407 </v>
   <v>       0.07407407 </v>
   <v>       0.07407407 </v>
   <v>       0.14814815 </v>
   <v>       0.14814815 </v>
   <v>       0.07407407 </v>
   <v>       0.07407407 </v>
   <v>       0.14814815 </v>
   <v>       0.02469136 </v>
  </varray>
 </kpoints>
 <parameters>
  <separator name="general" >
   <i type="string" name="SYSTEM">unknown system</i>
   <i type="logical" name="LCOMPAT"> F  </i>
  </separator>
  <separator name="electronic" >
   <i type="string" name="PREC">accura</i>
   <i name="ENMAX">    520.00000000</i>
   <i name="ENAUG">    644.87300000</i>
   <i name="EDIFF">      0.00000100</i>
   <i type="int" name="IALGO">    38</i>
   <i type="int" name="IWAVPR">    11</i>
   <i type="int" name="NBANDS">    16</i>
   <i name="NELECT">      8.00000000</i>
   <i type="int" name="TURBO">     0</i>
   <i type="int" name="IRESTART">     0</i>
   <i type="int" name="NREBOOT">     0</i>
   <i type="int" name="NMIN">     0</i>
   <i name="EREF">      0.00000000</i>
   <separator name="electronic smearing" >
    <i type="int" name="ISMEAR">     0</i>
    <i name="SIGMA">      0.05000000</i>
    <i name="KSPACING">      0.50000000</i>
    <i type="logical" name="KGAMMA"> T  </i>
   </separator>
   <separator name="electronic projectors" >
    <i type="logical" name="LREAL"> F  </i>
    <v name="ROPT">      0.00000000      0.00000000</v>
    <i type="int" name="LMAXPAW">  -100</i>
    <i type="int" name="LMAXMIX">     2</i>
    <i type="logical" name="NLSPLINE"> F  </i>
   </separator>
   <separator name="electronic startup" >
    <i type="int" name="ISTART">     0</i>
    <i type="int" name="ICHARG">     2</i>
    <i type="int" name="INIWAV">     1</i>
   </separator>
   <separator name="electronic spin" >
    <i type="int" name="ISPIN">     1</i>
    <i type="logical" name="LNONCOLLINEAR"> F  </i>
    <v name="MAGMOM">      1.00000000      1.00000000</v>
    <i name="NUPDOWN">     -1.00000000</i>
    <i type="logical" name="LSORBIT"> F  </i>
    <v name="SAXIS">      0.00000000      0.00000000      1.00000000</v>
    <i type="logical" name="LSPIRAL"> F  </i>
    <v name="QSPIRAL">      0.00000000      0.00000000      0.00000000</v>
    <i type="logical" name="LZEROZ"> F  </i>
   </separator>
   <separator name="electronic exchange-correlation" >
    <i type="logical" name="LASPH"> F  </i>
    <i type="logical" name="LMETAGGA"> F  </i>
   </separator>
   <separator name="electronic convergence" >
    <i type="int" name="NELM">    60</i>
    <i type="int" name="NELMDL">    -5</i>
    <i type="int" name="NELMIN">     2</i>
    <i name="ENINI">    520.00000000</i>
    <separator name="electronic convergence detail" >
     <i type="logical" name="LDIAG"> T  </i>
     <i type="logical" name="LSUBROT"> F  </i>
     <i name="WEIMIN">      0.00100000</i>
     <i name="EBREAK">      0.00000000</i>
     <i name="DEPER">      0.30000000</i>
     <i type="int" name="NRMM">     4</i>
     <i name="TIME">      0.40000000</i>
    </separator>
   </separator>
   <separator name="electronic mixer" >
    <i name="AMIX">      0.40000000</i>
    <i name="BMIX">      1.00000000</i>
    <i name="AMIN">      0.10000000</i>
    <i name="AMIX_MAG">      1.60000000</i>
    <i name="BMIX_MAG">      1.00000000</i>
    <separator name="electronic mixer details" >
     <i type="int" name="IMIX">     4</i>
     <i type="int" name="MAXMIX">   -45</i>
     <i name="WC">    100.00000000</i>
     <i type="int" name="INIMIX">     1</i>
     <i type="int" name="MIXPRE">     1</i>
     <i type="int" name="MREMOVE">     5</i>
    </separator>
   </separator>
   <separator name="electronic dipolcorrection" >
    <i type="logical" name="LDIPOL"> F  </i>
    <i type="logical" name="LMONO"> F  </i>
    <i type="int" name="IDIPOL">     0</i>
    <i name="EPSILON">      1.00000000</i>
    <v name="DIPOL">   -100.00000000   -100.00000000   -100.00000000</v>
    <i name="EFIELD">      0.00000000</i>
   </separator>
  </separator>
  <separator name="grids" >
   <i type="int" name="NGX">    24</i>
   <i type="int" name="NGY">    24</i>
   <i type="int" name="NGZ">   150</i>
   <i type="int" name="NGXF">    48</i>
   <i type="int" name="NGYF">    48</i>
   <i type="int" name="NGZF">   300</i>
   <i type="logical" name="ADDGRID"> F  </i>
  </separator>
  <separator name="ionic" >
   <i type="int" name="NSW">    50</i>
   <i type="int" name="IBRION">     2</i>
   <i type="int" name="ISIF">     2</i>
   <i name="PSTRESS">      0.00000000</i>
   <i name="EDIFFG">     -0.00000100</i>
   <i type="int" name="NFREE">     1</i>
   <i name="POTIM">      0.50000000</i>
   <i name="SMASS">     -3.00000000</i>
   <i name="SCALEE">      1.00000000</i>
  </separator>
  <separator name="ionic md" >
   <i name="TEBEG">      0.00010000</i>
   <i name="TEEND">      0.00010000</i>
   <i type="int" name="NBLOCK">     1</i>
   <i type="int" name="KBLOCK">    50</i>
   <i type="int" name="NPACO">   256</i>
   <i name="APACO">     16.00000000</i>
  </separator>
  <separator name="symmetry" >
   <i type="int" name="ISYM">     2</i>
   <i name="SYMPREC">      0.00001000</i>
  </separator>
  <separator name="dos" >
   <i type="logical" name="LORBIT"> F  </i>
   <v name="RWIGS">     -1.00000000     -1.00000000</v>
   <i type="int" name="NEDOS">   301</i>
   <i name="EMIN">     10.00000000</i>
   <i name="EMAX">    -10.00000000</i>
   <i name="EFERMI">      0.00000000</i>
  </separator>
  <separator name="writing" >
   <i type="int" name="NWRITE">     2</i>
   <i type="logical" name="LWAVE"> T  </i>
   <i type="logical" name="LCHARG"> T  </i>
   <i type="logical" name="LPARD"> F  </i>
   <i type="logical" name="LVTOT"> F  </i>
   <i type="logical" name="LVHAR"> F  </i>
   <i type="logical" name="LELF"> F  </i>
   <i type="logical" name="LOPTICS"> F  </i>
   <v name="STM">      0.00000000      0.00000000      0.00000000      0.00000000      0.00000000      0.00000000      0.00000000</v>
  </separator>
  <separator name="performance" >
   <i type="int" name="NPAR">     2</i>
   <i type="int" name="NSIM">     4</i>
   <i type="int" name="NBLK">    -1</i>
   <i type="logical" name="LPLANE"> T  </i>
   <i type="logical" name="LSCALAPACK"> T  </i>
   <i type="logical" name="LSCAAWARE"> F  </i>
   <i type="logical" name="LSCALU"> F  </i>
   <i type="logical" name="LASYNC"> F  </i>
   <i type="logical" name="LORBITALREAL"> F  </i>
  </separator>
  <separator name="miscellaneous" >
   <i type="int" name="IDIOT">     3</i>
   <i type="logical" name="LMUSIC"> F  </i>
   <v name="POMASS">     72.61000000     12.01100000</v>
   <v name="DARWINR">      0.00000000      0.00000000</v>
   <v name="DARWINV">      1.00000000      1.00000000</v>
   <i type="logical" name="LCORR"> T  </i>
  </separator>
  <i type="logical" name="GGA_COMPAT"> T  </i>
  <i type="logical" name="LBERRY"> F  </i>
  <i type="int" name="ICORELEVEL">     0</i>
  <i type="logical" name="LDAU"> F  </i>
  <i type="int" name="I_CONSTRAINED_M">     0</i>
  <separator name="electronic exchange-correlation" >
   <i type="string" name="GGA">--</i>
   <i type="int" name="VOSKOWN">     0</i>
   <i type="logical" name="LHFCALC"> F  </i>
   <i type="string" name="PRECFOCK"></i>
   <i type="logical" name="LSYMGRAD"> F  </i>
   <i type="logical" name="LHFONE"> F  </i>
   <i type="logical" name="LRHFCALC"> F  </i>
   <i type="logical" name="LTHOMAS"> F  </i>
   <i type="logical" name="LMODELHF"> F  </i>
   <i name="ENCUT4O">     -1.00000000</i>
   <i type="int" name="EXXOEP">     0</i>
   <i type="int" name="FOURORBIT">     0</i>
   <i name="AEXX">      0.00000000</i>
   <i name="HFALPHA">      0.00000000</i>
   <i name="MCALPHA">      0.00000000</i>
   <i name="ALDAX">      1.00000000</i>
   <i name="AGGAX">      1.00000000</i>
   <i name="ALDAC">      1.00000000</i>
   <i name="AGGAC">      1.00000000</i>
   <i type="int" name="NKREDX">     1</i>
   <i type="int" name="NKREDY">     1</i>
   <i type="int" name="NKREDZ">     1</i>
   <i type="logical" name="SHIFTRED"> F  </i>
   <i type="logical" name="ODDONLY"> F  </i>
   <i type="logical" name="EVENONLY"> F  </i>
   <i type="int" name="LMAXFOCK">     0</i>
   <i type="int" name="NMAXFOCKAE">     0</i>
   <i type="logical" name="LFOCKAEDFT"> F  </i>
   <i name="HFSCREEN">      0.00000000</i>
   <i name="HFSCREENC">      0.00000000</i>
   <i type="int" name="NBANDSGWLOW">     0</i>
  </separator>
  <separator name="vdW DFT" >
   <i type="logical" name="LUSE_VDW"> F  </i>
   <i name="Zab_VDW">     -0.84910000</i>
   <i name="PARAM1">      0.12340000</i>
   <i name="PARAM2">      1.00000000</i>
   <i name="PARAM3">      0.00000000</i>
  </separator>
  <separator name="model GW" >
   <i type="int" name="MODEL_GW">     0</i>
   <i name="MODEL_EPS0">     53.87578678</i>
   <i name="MODEL_ALPHA">      1.00000000</i>
  </separator>
  <separator name="linear response parameters" >
   <i type="logical" name="LEPSILON"> F  </i>
   <i type="logical" name="LRPA"> F  </i>
   <i type="logical" name="LNABLA"> F  </i>
   <i type="logical" name="LVEL"> F  </i>
   <i type="int" name="KINTER">     0</i>
   <i name="CSHIFT">      0.10000000</i>
   <i name="OMEGAMAX">     -1.00000000</i>
   <i name="DEG_THRESHOLD">      0.00200000</i>
  </separator>
  <separator name="orbital magnetization" >
   <i type="logical" name="NUCIND"> F  </i>
   <v name="MAGPOS">      0.00000000      0.00000000      0.00000000</v>
   <i type="logical" name="LNICSALL"> T  </i>
   <i type="logical" name="ORBITALMAG"> F  </i>
   <i type="logical" name="LMAGBLOCH"> F  </i>
   <i type="logical" name="LCHIMAG"> F  </i>
   <i type="logical" name="LGAUGE"> T  </i>
   <i type="int" name="MAGATOM">     0</i>
   <v name="MAGDIPOL">      0.00000000      0.00000000      0.00000000</v>
   <v name="AVECCONST">      0.00000000      0.00000000      0.00000000</v>
  </separator>
  <separator name="response functions" >
   <i type="logical" name="LADDER"> F  </i>
   <i type="logical" name="LFXC"> F  </i>
   <i type="logical" name="LHARTREE"> T  </i>
   <i type="int" name="IBSE">     0</i>
   <i type="logical" name="LTCTE"> F  </i>
   <i type="logical" name="LTETE"> F  </i>
   <i type="logical" name="LTRIPLET"> F  </i>
   <i type="logical" name="LFXCEPS"> F  </i>
   <i type="logical" name="LFXHEG"> F  </i>
   <i type="logical" name="L2ORDER"> F  </i>
   <i type="logical" name="LUSEW"> F  </i>
   <i name="ENCUTGW">     -2.00000000</i>
   <i name="ENCUTGWSOFT">     -2.00000000</i>
   <i name="ENCUTLF">     -1.00000000</i>
   <i type="int" name="LMAXMP2">    -1</i>
   <i name="SCISSOR">      0.00000000</i>
   <i type="int" name="NOMEGA">     0</i>
   <i type="int" name="NOMEGAR">     0</i>
   <i type="int" name="NBANDSGW">    -1</i>
   <i type="int" name="NBANDSO">    -1</i>
   <i type="int" name="NBANDSV">    -1</i>
   <i type="int" name="NELM">     1</i>
   <i type="int" name="DIM">     3</i>
   <i type="int" name="ANTIRES">     0</i>
   <i name="OMEGAMAX">    -30.00000000</i>
   <i name="OMEGAMIN">    -30.00000000</i>
   <i name="OMEGATL">   -200.00000000</i>
   <i type="int" name="OMEGAGRID">     0</i>
   <i name="CSHIFT">     -0.10000000</i>
   <i type="logical" name="SELFENERGY"> F  </i>
   <i type="logical" name="LSPECTRAL"> F  </i>
   <i type="logical" name="ODDONLYGW"> F  </i>
   <i type="logical" name="EVENONLYGW"> F  </i>
   <i type="int" name="NKREDLFX">     1</i>
   <i type="int" name="NKREDLFY">     1</i>
   <i type="int" name="NKREDLFZ">     1</i>
   <i type="int" name="MAXMEM">  1800</i>
   <i type="int" name="TELESCOPE">     0</i>
   <i type="int" name="TAUPAR">     1</i>
  </separator>
  <separator name="External order field" >
   <i name="OFIELD_KAPPA">      0.00000000</i>
   <v name="OFIELD_K">      0.00000000      0.00000000      0.00000000</v>
   <i name="OFIELD_Q6_NEAR">      0.00000000</i>
   <i name="OFIELD_Q6_FAR">      0.00000000</i>
   <i name="OFIELD_A">      0.00000000</i>
  </separator>
 </parameters>
 <atominfo>
  <atoms>       2 </atoms>
  <types>       2 </types>
  <array name="atoms" >
   <dimension dim="1">ion</dimension>
   <field type="string">element</field>
   <field type="int">atomtype</field>
   <set>
    <rc><c>Ge</c><c>   1</c></rc>
    <rc><c>C </c><c>   2</c></rc>
   </set>
  </array>
  <array name="atomtypes" >
   <dimension dim="1">type</dimension>
   <field type="int">atomspertype</field>
   <field type="string">element</field>
   <field>mass</field>
   <field>valence</field>
   <field type="string">pseudopotential</field>
   <set>
    <rc><c>   1</c><c>Ge</c><c>     72.61000000</c><c>      4.00000000</c><c>  PAW_PBE Ge 05Jan2001                  </c></rc>
    <rc><c>   1</c><c>C </c><c>     12.01100000</c><c>      4.00000000</c><c>  PAW_PBE C 08Apr2002                   </c></rc>
   </set>
  </array>
 </atominfo>
 <structure name="initialpos" >
  <crystal>
   <varray name="basis" >
    <v>       3.22000000       0.00000000       0.00000000 </v>
    <v>      -1.61000000       2.78860180       0.00000000 </v>
    <v>       0.00000000       0.00000000      20.00000000 </v>
   </varray>
   <i name="volume">    179.58595592 </i>
   <varray name="rec_basis" >
    <v>       0.31055901       0.17930133       0.00000000 </v>
    <v>       0.00000000       0.35860265       0.00000000 </v>
    <v>       0.00000000       0.00000000       0.05000000 </v>
   </varray>
  </crystal>
  <varray name="positions" >
   <v>       0.00000000       0.00000000       0.50000000 </v>
   <v>       0.33333334       0.66666669       0.50000000 </v>
  </varray>
  <varray name="selective"  type="logical" >
   <v type="logical" >  F  F  F </v>
   <v type="logical" >  T  T  F </v>
  </varray>
  <nose>
   <v>      -3.00000000       0.00000000       0.00010000       0.00010000 </v>
  </nose>
 </structure>
 <calculation>
  <scstep>
   <time name="dav">    2.03    2.03</time>
   <time name="total">    2.68    2.68</time>
   <energy>
    <i name="alphaZ">      3.04343433 </i>
    <i name="ewald">    662.96050053 </i>
    <i name="hartreedc">   -850.11498100 </i>
    <i name="XCdc">      4.89274895 </i>
    <i name="pawpsdc">    196.66724158 </i>
    <i name="pawaedc">   -182.74907724 </i>
    <i name="eentropy">     -0.00413180 </i>
    <i name="bandstr">    -43.13809389 </i>
    <i name="atom">    252.14468729 </i>
    <i name="e_fr_energy">     43.70232875 </i>
    <i name="e_wo_entrp">     43.70646055 </i>
    <i name="e_0_energy">     43.70439465 </i>
   </energy>
  </scstep>
  <scstep>
   <time name="dav">    2.58    2.58</time>
   <time name="total">    2.58    2.58</time>
   <energy>
    <i name="e_fr_energy">     -7.90028928 </i>
    <i name="e_wo_entrp">     -7.90028928 </i>
    <i name="e_0_energy">     -7.90028928 </i>
   </energy>
  </scstep>
  <scstep>
   <time name="dav">    2.47    2.48</time>
   <time name="total">    2.48    2.48</time>
   <energy>
    <i name="e_fr_energy">    -14.01559478 </i>
    <i name="e_wo_entrp">    -14.01559478 </i>
    <i name="e_0_energy">    -14.01559478 </i>
   </energy>
  </scstep>
  <scstep>
   <time name="dav">    2.30    2.30</time>
   <time name="total">    2.30    2.30</time>
   <energy>
    <i name="e_fr_energy">    -14.16276671 </i>
    <i name="e_wo_entrp">    -14.16276671 </i>
    <i name="e_0_energy">    -14.16276671 </i>
   </energy>
  </scstep>
  <scstep>
   <time name="dav">    2.38    2.38</time>
   <time name="total">    2.53    2.53</time>
   <energy>
    <i name="e_fr_energy">    -14.16509095 </i>
    <i name="e_wo_entrp">    -14.16509095 </i>
    <i name="e_0_energy">    -14.16509095 </i>
   </energy>
  </scstep>
  <scstep>
   <time name="dav">    2.41    2.41</time>
   <time name="total">    3.18    3.18</time>
   <energy>
    <i name="e_fr_energy">    -11.89803279 </i>
    <i name="e_wo_entrp">    -11.89803279 </i>
    <i name="e_0_energy">    -11.89803279 </i>
   </energy>
  </scstep>
  <scstep>
   <time name="dav">    2.36    2.36</time>
   <time name="total">    3.13    3.13</time>
   <energy>
    <i name="e_fr_energy">    -11.88841887 </i>
    <i name="e_wo_entrp">    -11.88841887 </i>
    <i name="e_0_energy">    -11.88841887 </i>
   </energy>
  </scstep>
  <scstep>
   <time name="dav">    2.53    2.53</time>
   <time name="total">    3.30    3.30</time>
   <energy>
    <i name="e_fr_energy">    -11.84902565 </i>
    <i name="e_wo_entrp">    -11.84902565 </i>
    <i name="e_0_energy">    -11.84902565 </i>
   </energy>
  </scstep>
  <scstep>
   <time name="dav">    2.65    2.65</time>
   <time name="total">    3.41    3.41</time>
   <energy>
    <i name="e_fr_energy">    -11.84293109 </i>
    <i name="e_wo_entrp">    -11.84293109 </i>
    <i name="e_0_energy">    -11.84293109 </i>
   </energy>
  </scstep>
  <scstep>
   <time name="dav">    2.39    2.39</time>
   <time name="total">    3.16    3.16</time>
   <energy>
    <i name="e_fr_energy">    -11.84118874 </i>
    <i name="e_wo_entrp">    -11.84118874 </i>
    <i name="e_0_energy">    -11.84118874 </i>
   </energy>
  </scstep>
  <scstep>
   <time name="dav">    2.43    2.44</time>
   <time name="total">    3.20    3.21</time>
   <energy>
    <i name="e_fr_energy">    -11.83982133 </i>
    <i name="e_wo_entrp">    -11.83982133 </i>
    <i name="e_0_energy">    -11.83982133 </i>
   </energy>
  </scstep>
  <scstep>
   <time name="dav">    2.29    2.29</time>
   <time name="total">    3.07    3.07</time>
   <energy>
    <i name="e_fr_energy">    -11.84081560 </i>
    <i name="e_wo_entrp">    -11.84081560 </i>
    <i name="e_0_energy">    -11.84081560 </i>
   </energy>
  </scstep>
  <scstep>
   <time name="dav">    2.29    2.29</time>
   <time name="total">    3.07    3.07</time>
   <energy>
    <i name="e_fr_energy">    -11.84088429 </i>
    <i name="e_wo_entrp">    -11.84088429 </i>
    <i name="e_0_energy">    -11.84088429 </i>
   </energy>
  </scstep>
  <scstep>
   <time name="dav">    2.14    2.14</time>
   <time name="total">    2.91    2.92</time>
   <energy>
    <i name="e_fr_energy">    -11.84158127 </i>
    <i name="e_wo_entrp">    -11.84158127 </i>
    <i name="e_0_energy">    -11.84158127 </i>
   </energy>
  </scstep>
  <scstep>
   <time name="dav">    2.32    2.32</time>
   <time name="total">    3.09    3.09</time>
   <energy>
    <i name="e_fr_energy">    -11.84168347 </i>
    <i name="e_wo_entrp">    -11.84168347 </i>
    <i name="e_0_energy">    -11.84168347 </i>
   </energy>
  </scstep>
  <scstep>
   <time name="dav">    2.13    2.13</time>
   <time name="total">    2.91    2.91</time>
   <energy>
    <i name="e_fr_energy">    -11.84186512 </i>
    <i name="e_wo_entrp">    -11.84186512 </i>
    <i name="e_0_energy">    -11.84186512 </i>
   </energy>
  </scstep>
  <scstep>
   <time name="dav">    2.33    2.33</time>
   <time name="total">    3.11    3.11</time>
   <energy>
    <i name="e_fr_energy">    -11.84187971 </i>
    <i name="e_wo_entrp">    -11.84187971 </i>
    <i name="e_0_energy">    -11.84187971 </i>
   </energy>
  </scstep>
  <scstep>
   <time name="dav">    2.18    2.18</time>
   <time name="total">    2.95    2.95</time>
   <energy>
    <i name="e_fr_energy">    -11.84189787 </i>
    <i name="e_wo_entrp">    -11.84189787 </i>
    <i name="e_0_energy">    -11.84189787 </i>
   </energy>
  </scstep>
  <scstep>
   <time name="dav">    2.32    2.33</time>
   <time name="total">    3.09    3.10</time>
   <energy>
    <i name="e_fr_energy">    -11.84190344 </i>
    <i name="e_wo_entrp">    -11.84190344 </i>
    <i name="e_0_energy">    -11.84190344 </i>
   </energy>
  </scstep>
  <scstep>
   <time name="dav">    2.21    2.21</time>
   <time name="total">    2.99    2.99</time>
   <energy>
    <i name="e_fr_energy">    -11.84190603 </i>
    <i name="e_wo_entrp">    -11.84190603 </i>
    <i name="e_0_energy">    -11.84190603 </i>
   </energy>
  </scstep>
  <scstep>
   <time name="dav">    2.18    2.19</time>
   <time name="total">    2.81    2.82</time>
   <energy>
    <i name="alphaZ">      3.04343433 </i>
    <i name="ewald">    662.96050053 </i>
    <i name="hartreedc">   -875.27623100 </i>
    <i name="XCdc">      6.12773407 </i>
    <i name="pawpsdc">    629.33017872 </i>
    <i name="pawaedc">   -615.84657818 </i>
    <i name="eentropy">     -0.00000000 </i>
    <i name="bandstr">    -74.32563275 </i>
    <i name="atom">    252.14468729 </i>
    <i name="e_fr_energy">    -11.84190699 </i>
    <i name="e_wo_entrp">    -11.84190699 </i>
    <i name="e_0_energy">    -11.84190699 </i>
   </energy>
  </scstep>
  <structure>
   <crystal>
    <varray name="basis" >
     <v>       3.22000000       0.00000000       0.00000000 </v>
     <v>      -1.61000000       2.78860180       0.00000000 </v>
     <v>       0.00000000       0.00000000      20.00000000 </v>
    </varray>
    <i name="volume">    179.58595592 </i>
    <varray name="rec_basis" >
     <v>       0.31055901       0.17930133       0.00000000 </v>
     <v>       0.00000000       0.35860265       0.00000000 </v>
     <v>       0.00000000       0.00000000       0.05000000 </v>
    </varray>
   </crystal>
   <varray name="positions" >
    <v>       0.00000000       0.00000000       0.50000000 </v>
    <v>       0.33333334       0.66666669       0.50000000 </v>
   </varray>
  </structure>
  <varray name="forces" >
   <v>      -0.00000000       0.00000000       0.00000000 </v>
   <v>       0.00000000      -0.00000000       0.00000000 </v>
  </varray>
  <varray name="stress" >
   <v>      14.98911037       0.00000000       0.00000000 </v>
   <v>       0.00000000      14.98911037      -0.00000000 </v>
   <v>      -0.00000000       0.00000000      -0.04555035 </v>
  </varray>
  <energy>
   <i name="e_fr_energy">    -11.84190699 </i>
   <i name="e_wo_entrp">    -11.84190699 </i>
   <i name="e_0_energy">     -0.00000000 </i>
  </energy>
  <time name="totalsc">   65.75   65.79</time>
  <eigenvalues>
   <array>
    <dimension dim="1">band</dimension>
    <dimension dim="2">kpoint</dimension>
    <dimension dim="3">spin</dimension>
    <field>eigene</field>
    <field>occ</field>
    <set>
     <set comment="spin 1">
      <set comment="kpoint 1">
       <r>  -17.4893    1.0000 </r>
       <r>   -7.1989    1.0000 </r>
       <r>   -4.4595    1.0000 </r>
       <r>   -4.4595    1.0000 </r>
       <r>   -0.7500    0.0000 </r>
       <r>    1.0315    0.0000 </r>
       <r>    1.0963    0.0000 </r>
       <r>    1.6670    0.0000 </r>
       <r>    2.3842    0.0000 </r>
       <r>    3.0863    0.0000 </r>
       <r>    3.9483    0.0000 </r>
       <r>    3.9483    0.0000 </r>
       <r>    3.9948    0.0000 </r>
       <r>    5.3593    0.0000 </r>
       <r>    5.6438    0.0000 </r>
       <r>    8.3077    0.0000 </r>
      </set>
      <set comment="kpoint 2">
       <r>  -17.2923    1.0000 </r>
       <r>   -6.9854    1.0000 </r>
       <r>   -5.5844    1.0000 </r>
       <r>   -4.7879    1.0000 </r>
       <r>   -0.2699    0.0000 </r>
       <r>    1.2289    0.0000 </r>
       <r>    1.4478    0.0000 </r>
       <r>    1.9411    0.0000 </r>
       <r>    2.5521    0.0000 </r>
       <r>    3.2618    0.0000 </r>
       <r>    3.7339    0.0000 </r>
       <r>    3.9102    0.0000 </r>
       <r>    4.6334    0.0000 </r>
       <r>    5.5759    0.0000 </r>
       <r>    5.6202    0.0000 </r>
       <r>    8.3534    0.0000 </r>
      </set>
      <set comment="kpoint 3">
       <r>  -16.7081    1.0000 </r>
       <r>   -7.7262    1.0000 </r>
       <r>   -6.3613    1.0000 </r>
       <r>   -5.4844    1.0000 </r>
       <r>    0.3428    0.0000 </r>
       <r>    1.5890    0.0000 </r>
       <r>    1.7508    0.0000 </r>
       <r>    2.5148    0.0000 </r>
       <r>    2.7058    0.0000 </r>
       <r>    3.6543    0.0000 </r>
       <r>    3.7950    0.0000 </r>
       <r>    4.6986    0.0000 </r>
       <r>    5.8597    0.0000 </r>
       <r>    6.3659    0.0000 </r>
       <r>    6.4208    0.0000 </r>
       <r>    8.5160    0.0000 </r>
      </set>
      <set comment="kpoint 4">
       <r>  -15.7725    1.0000 </r>
       <r>   -9.9246    1.0000 </r>
       <r>   -6.1282    1.0000 </r>
       <r>   -5.3978    1.0000 </r>
       <r>    0.3285    0.0000 </r>
       <r>    0.6172    0.0000 </r>
       <r>    2.3789    0.0000 </r>
       <r>    3.3741    0.0000 </r>
       <r>    3.6695    0.0000 </r>
       <r>    4.7053    0.0000 </r>
       <r>    4.7917    0.0000 </r>
       <r>    6.0737    0.0000 </r>
       <r>    6.6455    0.0000 </r>
       <r>    7.6053    0.0000 </r>
       <r>    8.1947    0.0000 </r>
       <r>    8.5635    0.0000 </r>
      </set>
      <set comment="kpoint 5">
       <r>  -14.6902    1.0000 </r>
       <r>  -11.6881    1.0000 </r>
       <r>   -6.4931    1.0000 </r>
       <r>   -4.3830    1.0000 </r>
       <r>   -0.7734    0.0000 </r>
       <r>    0.0808    0.0000 </r>
       <r>    3.7930    0.0000 </r>
       <r>    4.7965    0.0000 </r>
       <r>    5.2806    0.0000 </r>
       <r>    5.6591    0.0000 </r>
       <r>    6.0163    0.0000 </r>
       <r>    6.5674    0.0000 </r>
       <r>    6.8233    0.0000 </r>
       <r>    7.4208    0.0000 </r>
       <r>    7.7479    0.0000 </r>
       <r>    7.9939    0.0000 </r>
      </set>
      <set comment="kpoint 6">
       <r>  -16.9014    1.0000 </r>
       <r>   -7.0069    1.0000 </r>
       <r>   -6.5660    1.0000 </r>
       <r>   -5.4976    1.0000 </r>
       <r>    0.3263    0.0000 </r>
       <r>    1.5404    0.0000 </r>
       <r>    1.9760    0.0000 </r>
       <r>    2.4189    0.0000 </r>
       <r>    2.7196    0.0000 </r>
       <r>    3.3157    0.0000 </r>
       <r>    3.7501    0.0000 </r>
       <r>    3.8984    0.0000 </r>
       <r>    5.7233    0.0000 </r>
       <r>    5.8115    0.0000 </r>
       <r>    6.3658    0.0000 </r>
       <r>    8.4748    0.0000 </r>
      </set>
      <set comment="kpoint 7">
       <r>  -16.1373    1.0000 </r>
       <r>   -8.9444    1.0000 </r>
       <r>   -6.4313    1.0000 </r>
       <r>   -5.7651    1.0000 </r>
       <r>    1.0152    0.0000 </r>
       <r>    1.1995    0.0000 </r>
       <r>    2.3252    0.0000 </r>
       <r>    3.0026    0.0000 </r>
       <r>    3.2029    0.0000 </r>
       <r>    4.1467    0.0000 </r>
       <r>    4.2965    0.0000 </r>
       <r>    5.0319    0.0000 </r>
       <r>    6.3098    0.0000 </r>
       <r>    6.9444    0.0000 </r>
       <r>    7.8031    0.0000 </r>
       <r>    8.0957    0.0000 </r>
      </set>
      <set comment="kpoint 8">
       <r>  -15.0812    1.0000 </r>
       <r>  -10.8723    1.0000 </r>
       <r>   -7.0641    1.0000 </r>
       <r>   -4.7189    1.0000 </r>
       <r>   -0.1815    0.0000 </r>
       <r>    1.0654    0.0000 </r>
       <r>    3.2269    0.0000 </r>
       <r>    4.1684    0.0000 </r>
       <r>    4.6040    0.0000 </r>
       <r>    5.4349    0.0000 </r>
       <r>    5.5130    0.0000 </r>
       <r>    6.4333    0.0000 </r>
       <r>    6.5013    0.0000 </r>
       <r>    7.9281    0.0000 </r>
       <r>    8.0354    0.0000 </r>
       <r>    8.5574    0.0000 </r>
      </set>
      <set comment="kpoint 9">
       <r>  -14.3079    1.0000 </r>
       <r>  -11.9605    1.0000 </r>
       <r>   -7.2816    1.0000 </r>
       <r>   -4.0450    1.0000 </r>
       <r>   -1.0367    0.0000 </r>
       <r>    0.9702    0.0000 </r>
       <r>    4.5034    0.0000 </r>
       <r>    5.0834    0.0000 </r>
       <r>    5.2710    0.0000 </r>
       <r>    6.1958    0.0000 </r>
       <r>    6.4443    0.0000 </r>
       <r>    6.5552    0.0000 </r>
       <r>    6.7657    0.0000 </r>
       <r>    7.2355    0.0000 </r>
       <r>    7.5594    0.0000 </r>
       <r>    7.8615    0.0000 </r>
      </set>
      <set comment="kpoint 10">
       <r>  -15.2318    1.0000 </r>
       <r>  -10.2709    1.0000 </r>
       <r>   -7.7377    1.0000 </r>
       <r>   -4.8518    1.0000 </r>
       <r>    0.1689    0.0000 </r>
       <r>    2.1123    0.0000 </r>
       <r>    3.3565    0.0000 </r>
       <r>    3.9329    0.0000 </r>
       <r>    4.3283    0.0000 </r>
       <r>    4.8644    0.0000 </r>
       <r>    5.1444    0.0000 </r>
       <r>    5.9830    0.0000 </r>
       <r>    6.0644    0.0000 </r>
       <r>    7.7944    0.0000 </r>
       <r>    8.0677    0.0000 </r>
       <r>    8.6434    0.0000 </r>
      </set>
      <set comment="kpoint 11">
       <r>  -14.2011    1.0000 </r>
       <r>  -11.5701    1.0000 </r>
       <r>   -8.4731    1.0000 </r>
       <r>   -3.8979    1.0000 </r>
       <r>   -0.9034    0.0000 </r>
       <r>    2.6162    0.0000 </r>
       <r>    4.3133    0.0000 </r>
       <r>    4.4545    0.0000 </r>
       <r>    5.8338    0.0000 </r>
       <r>    5.9174    0.0000 </r>
       <r>    6.2177    0.0000 </r>
       <r>    7.1403    0.0000 </r>
       <r>    7.1941    0.0000 </r>
       <r>    7.8197    0.0000 </r>
       <r>    7.9558    0.0000 </r>
       <r>    8.2343    0.0000 </r>
      </set>
      <set comment="kpoint 12">
       <r>  -13.6628    1.0000 </r>
       <r>  -11.9093    1.0000 </r>
       <r>   -9.1441    1.0000 </r>
       <r>   -3.4334    1.0000 </r>
       <r>   -1.2725    0.0000 </r>
       <r>    3.3492    0.0000 </r>
       <r>    3.8361    0.0000 </r>
       <r>    5.4529    0.0000 </r>
       <r>    6.3736    0.0000 </r>
       <r>    7.2088    0.0000 </r>
       <r>    7.2371    0.0000 </r>
       <r>    7.6636    0.0000 </r>
       <r>    7.6803    0.0000 </r>
       <r>    7.9477    0.0000 </r>
       <r>    8.0088    0.0000 </r>
       <r>    8.0553    0.0000 </r>
      </set>
     </set>
    </set>
   </array>
  </eigenvalues>
  <separator name="orbital magnetization" >
   <v name="MAGDIPOLOUT">      0.00000000      0.00000000      0.00000000</v>
  </separator>
  <dos>
   <i name="efermi">     -3.17131785 </i>
   <total>
    <array>
     <dimension dim="1">gridpoints</dimension>
     <dimension dim="2">spin</dimension>
     <field>energy</field>
     <field>total</field>
     <field>integrated</field>
     <set>
      <set comment="spin 1">
       <r>   -18.7960     0.0000     0.0000 </r>
       <r>   -18.7001     0.0000     0.0000 </r>
       <r>   -18.6043     0.0000     0.0000 </r>
       <r>   -18.5085     0.0000     0.0000 </r>
       <r>   -18.4127     0.0000     0.0000 </r>
       <r>   -18.3169     0.0000     0.0000 </r>
       <r>   -18.2210     0.0000     0.0000 </r>
       <r>   -18.1252     0.0000     0.0000 </r>
       <r>   -18.0294     0.0000     0.0000 </r>
       <r>   -17.9336     0.0000     0.0000 </r>
       <r>   -17.8378     0.0000     0.0000 </r>
       <r>   -17.7419     0.0000     0.0000 </r>
       <r>   -17.6461     0.0000     0.0000 </r>
       <r>   -17.5503     0.0109     0.0010 </r>
       <r>   -17.4545     0.2050     0.0207 </r>
       <r>   -17.3587     0.0886     0.0292 </r>
       <r>   -17.2628     1.1866     0.1429 </r>
       <r>   -17.1670     0.3124     0.1728 </r>
       <r>   -17.0712     0.0003     0.1728 </r>
       <r>   -16.9754     0.0282     0.1755 </r>
       <r>   -16.8796     1.1032     0.2812 </r>
       <r>   -16.7837     0.4391     0.3233 </r>
       <r>   -16.6879     1.0826     0.4271 </r>
       <r>   -16.5921     0.4384     0.4691 </r>
       <r>   -16.4963     0.0008     0.4691 </r>
       <r>   -16.4005     0.0000     0.4691 </r>
       <r>   -16.3046     0.0000     0.4691 </r>
       <r>   -16.2088     0.0664     0.4755 </r>
       <r>   -16.1130     2.2641     0.6925 </r>
       <r>   -16.0172     0.7606     0.7653 </r>
       <r>   -15.9214     0.0011     0.7654 </r>
       <r>   -15.8255     0.1034     0.7753 </r>
       <r>   -15.7297     1.2680     0.8968 </r>
       <r>   -15.6339     0.1746     0.9136 </r>
       <r>   -15.5381     0.0001     0.9136 </r>
       <r>   -15.4423     0.0000     0.9136 </r>
       <r>   -15.3464     0.0009     0.9137 </r>
       <r>   -15.2506     0.4590     0.9577 </r>
       <r>   -15.1548     1.1211     1.0651 </r>
       <r>   -15.0590     2.2372     1.2794 </r>
       <r>   -14.9632     0.8188     1.3579 </r>
       <r>   -14.8673     0.0013     1.3580 </r>
       <r>   -14.7715     0.0166     1.3596 </r>
       <r>   -14.6757     1.0022     1.4556 </r>
       <r>   -14.5799     0.5259     1.5060 </r>
       <r>   -14.4841     0.0014     1.5062 </r>
       <r>   -14.3882     0.0178     1.5079 </r>
       <r>   -14.2924     1.0321     1.6068 </r>
       <r>   -14.1966     2.1990     1.8175 </r>
       <r>   -14.1008     1.3823     1.9499 </r>
       <r>   -14.0050     0.0070     1.9506 </r>
       <r>   -13.9091     0.0000     1.9506 </r>
       <r>   -13.8133     0.0000     1.9506 </r>
       <r>   -13.7175     0.0314     1.9536 </r>
       <r>   -13.6217     0.4209     1.9940 </r>
       <r>   -13.5259     0.0631     2.0000 </r>
       <r>   -13.4300     0.0000     2.0000 </r>
       <r>   -13.3342     0.0000     2.0000 </r>
       <r>   -13.2384     0.0000     2.0000 </r>
       <r>   -13.1426     0.0000     2.0000 </r>
       <r>   -13.0468     0.0000     2.0000 </r>
       <r>   -12.9509     0.0000     2.0000 </r>
       <r>   -12.8551     0.0000     2.0000 </r>
       <r>   -12.7593     0.0000     2.0000 </r>
       <r>   -12.6635     0.0000     2.0000 </r>
       <r>   -12.5677     0.0000     2.0000 </r>
       <r>   -12.4718     0.0000     2.0000 </r>
       <r>   -12.3760     0.0000     2.0000 </r>
       <r>   -12.2802     0.0000     2.0000 </r>
       <r>   -12.1844     0.0000     2.0000 </r>
       <r>   -12.0886     0.0002     2.0000 </r>
       <r>   -11.9927     0.2839     2.0272 </r>
       <r>   -11.8969     1.5343     2.1742 </r>
       <r>   -11.8011     0.2435     2.1976 </r>
       <r>   -11.7053     0.4849     2.2440 </r>
       <r>   -11.6095     1.4517     2.3831 </r>
       <r>   -11.5136     2.5310     2.6257 </r>
       <r>   -11.4178     0.1702     2.6420 </r>
       <r>   -11.3220     0.0000     2.6420 </r>
       <r>   -11.2262     0.0000     2.6420 </r>
       <r>   -11.1304     0.0000     2.6420 </r>
       <r>   -11.0345     0.0000     2.6420 </r>
       <r>   -10.9387     0.0930     2.6509 </r>
       <r>   -10.8429     2.3712     2.8781 </r>
       <r>   -10.7471     0.6274     2.9382 </r>
       <r>   -10.6513     0.0006     2.9383 </r>
       <r>   -10.5554     0.0000     2.9383 </r>
       <r>   -10.4596     0.0000     2.9383 </r>
       <r>   -10.3638     0.0066     2.9389 </r>
       <r>   -10.2680     0.8167     3.0172 </r>
       <r>   -10.1722     0.7187     3.0860 </r>
       <r>   -10.0763     0.0041     3.0864 </r>
       <r>    -9.9805     0.0879     3.0948 </r>
       <r>    -9.8847     1.2579     3.2154 </r>
       <r>    -9.7889     0.2003     3.2346 </r>
       <r>    -9.6931     0.0001     3.2346 </r>
       <r>    -9.5972     0.0000     3.2346 </r>
       <r>    -9.5014     0.0000     3.2346 </r>
       <r>    -9.4056     0.0000     3.2346 </r>
       <r>    -9.3098     0.0000     3.2346 </r>
       <r>    -9.2140     0.0124     3.2358 </r>
       <r>    -9.1181     0.3837     3.2725 </r>
       <r>    -9.0223     0.1618     3.2880 </r>
       <r>    -8.9265     2.1033     3.4896 </r>
       <r>    -8.8307     0.9444     3.5801 </r>
       <r>    -8.7349     0.0020     3.5802 </r>
       <r>    -8.6390     0.0000     3.5802 </r>
       <r>    -8.5432     0.0732     3.5873 </r>
       <r>    -8.4474     2.2969     3.8074 </r>
       <r>    -8.3516     0.7212     3.8765 </r>
       <r>    -8.2558     0.0009     3.8765 </r>
       <r>    -8.1599     0.0000     3.8765 </r>
       <r>    -8.0641     0.0000     3.8765 </r>
       <r>    -7.9683     0.0000     3.8765 </r>
       <r>    -7.8725     0.0001     3.8766 </r>
       <r>    -7.7767     0.3273     3.9079 </r>
       <r>    -7.6808     2.5270     4.1501 </r>
       <r>    -7.5850     0.2377     4.1728 </r>
       <r>    -7.4892     0.0001     4.1728 </r>
       <r>    -7.3934     0.0012     4.1730 </r>
       <r>    -7.2976     0.5031     4.2212 </r>
       <r>    -7.2017     1.1440     4.3308 </r>
       <r>    -7.1059     0.5242     4.3810 </r>
       <r>    -7.0101     3.6180     4.7277 </r>
       <r>    -6.9143     2.1565     4.9343 </r>
       <r>    -6.8185     0.0411     4.9383 </r>
       <r>    -6.7226     0.0000     4.9383 </r>
       <r>    -6.6268     0.0662     4.9446 </r>
       <r>    -6.5310     1.4581     5.0843 </r>
       <r>    -6.4352     2.9303     5.3651 </r>
       <r>    -6.3394     2.8481     5.6380 </r>
       <r>    -6.2435     0.4280     5.6790 </r>
       <r>    -6.1477     0.4492     5.7221 </r>
       <r>    -6.0519     1.0728     5.8249 </r>
       <r>    -5.9561     0.0239     5.8272 </r>
       <r>    -5.8603     0.0110     5.8282 </r>
       <r>    -5.7644     1.5587     5.9776 </r>
       <r>    -5.6686     1.5260     6.1238 </r>
       <r>    -5.5728     1.0044     6.2200 </r>
       <r>    -5.4770     2.5695     6.4663 </r>
       <r>    -5.3812     2.1099     6.6684 </r>
       <r>    -5.2853     0.4959     6.7159 </r>
       <r>    -5.1895     0.0011     6.7160 </r>
       <r>    -5.0937     0.0000     6.7160 </r>
       <r>    -4.9979     0.0000     6.7161 </r>
       <r>    -4.9021     0.1208     6.7276 </r>
       <r>    -4.8062     1.7607     6.8963 </r>
       <r>    -4.7104     3.0268     7.1864 </r>
       <r>    -4.6146     1.2713     7.3082 </r>
       <r>    -4.5188     0.0291     7.3110 </r>
       <r>    -4.4230     0.6133     7.3697 </r>
       <r>    -4.3271     1.3359     7.4977 </r>
       <r>    -4.2313     0.0882     7.5062 </r>
       <r>    -4.1355     0.0081     7.5069 </r>
       <r>    -4.0397     0.8575     7.5891 </r>
       <r>    -3.9439     0.9771     7.6827 </r>
       <r>    -3.8480     2.5510     7.9272 </r>
       <r>    -3.7522     0.2445     7.9506 </r>
       <r>    -3.6564     0.0001     7.9506 </r>
       <r>    -3.5606     0.0001     7.9506 </r>
       <r>    -3.4648     0.0966     7.9599 </r>
       <r>    -3.3689     0.4011     7.9983 </r>
       <r>    -3.2731     0.0176     8.0000 </r>
       <r>    -3.1773     0.0000     8.0000 </r>
       <r>    -3.0815     0.0000     8.0000 </r>
       <r>    -2.9857     0.0000     8.0000 </r>
       <r>    -2.8898     0.0000     8.0000 </r>
       <r>    -2.7940     0.0000     8.0000 </r>
       <r>    -2.6982     0.0000     8.0000 </r>
       <r>    -2.6024     0.0000     8.0000 </r>
       <r>    -2.5066     0.0000     8.0000 </r>
       <r>    -2.4107     0.0000     8.0000 </r>
       <r>    -2.3149     0.0000     8.0000 </r>
       <r>    -2.2191     0.0000     8.0000 </r>
       <r>    -2.1233     0.0000     8.0000 </r>
       <r>    -2.0275     0.0000     8.0000 </r>
       <r>    -1.9316     0.0000     8.0000 </r>
       <r>    -1.8358     0.0000     8.0000 </r>
       <r>    -1.7400     0.0000     8.0000 </r>
       <r>    -1.6442     0.0000     8.0000 </r>
       <r>    -1.5484     0.0000     8.0000 </r>
       <r>    -1.4525     0.0000     8.0000 </r>
       <r>    -1.3567     0.0044     8.0004 </r>
       <r>    -1.2609     0.3193     8.0310 </r>
       <r>    -1.1651     0.1913     8.0493 </r>
       <r>    -1.0693     0.2762     8.0758 </r>
       <r>    -0.9734     1.2870     8.1991 </r>
       <r>    -0.8776     2.3579     8.4251 </r>
       <r>    -0.7818     1.3915     8.5584 </r>
       <r>    -0.6860     1.1106     8.6648 </r>
       <r>    -0.5902     0.0194     8.6667 </r>
       <r>    -0.4943     0.0000     8.6667 </r>
       <r>    -0.3985     0.0002     8.6667 </r>
       <r>    -0.3027     0.2739     8.6929 </r>
       <r>    -0.2069     1.9459     8.8794 </r>
       <r>    -0.1111     2.3468     9.1043 </r>
       <r>    -0.0152     0.0766     9.1116 </r>
       <r>     0.0806     0.7737     9.1857 </r>
       <r>     0.1764     1.6654     9.3453 </r>
       <r>     0.2722     0.8638     9.4281 </r>
       <r>     0.3680     3.6662     9.7794 </r>
       <r>     0.4639     0.7557     9.8518 </r>
       <r>     0.5597     0.0808     9.8595 </r>
       <r>     0.6555     1.2504     9.9793 </r>
       <r>     0.7513     0.2154    10.0000 </r>
       <r>     0.8471     0.0005    10.0000 </r>
       <r>     0.9430     0.4065    10.0390 </r>
       <r>     1.0388     4.2726    10.4484 </r>
       <r>     1.1346     3.5598    10.7895 </r>
       <r>     1.2304     3.3083    11.1065 </r>
       <r>     1.3262     1.3320    11.2341 </r>
       <r>     1.4220     0.3657    11.2692 </r>
       <r>     1.5179     1.5883    11.4214 </r>
       <r>     1.6137     2.3017    11.6419 </r>
       <r>     1.7095     0.8027    11.7188 </r>
       <r>     1.8053     1.2934    11.8427 </r>
       <r>     1.9011     0.3216    11.8736 </r>
       <r>     1.9970     2.3507    12.0988 </r>
       <r>     2.0928     0.9639    12.1912 </r>
       <r>     2.1886     1.0735    12.2940 </r>
       <r>     2.2844     0.4148    12.3338 </r>
       <r>     2.3802     3.6424    12.6828 </r>
       <r>     2.4761     2.5567    12.9278 </r>
       <r>     2.5719     2.7424    13.1905 </r>
       <r>     2.6677     3.3957    13.5159 </r>
       <r>     2.7635     2.7454    13.7790 </r>
       <r>     2.8593     0.2450    13.8025 </r>
       <r>     2.9552     0.2773    13.8290 </r>
       <r>     3.0510     2.5908    14.0773 </r>
       <r>     3.1468     0.6815    14.1426 </r>
       <r>     3.2426     5.0508    14.6266 </r>
       <r>     3.3384     4.5078    15.0585 </r>
       <r>     3.4343     3.0310    15.3489 </r>
       <r>     3.5301     0.0953    15.3581 </r>
       <r>     3.6259     0.4963    15.4056 </r>
       <r>     3.7217     3.3990    15.7313 </r>
       <r>     3.8175     4.7217    16.1837 </r>
       <r>     3.9134     3.5545    16.5243 </r>
       <r>     4.0092     2.8924    16.8015 </r>
       <r>     4.1050     0.6196    16.8609 </r>
       <r>     4.2008     4.9667    17.3368 </r>
       <r>     4.2966     3.5608    17.6780 </r>
       <r>     4.3925     4.9281    18.1502 </r>
       <r>     4.4883     3.0658    18.4439 </r>
       <r>     4.5841     2.5493    18.6882 </r>
       <r>     4.6799     4.2747    19.0978 </r>
       <r>     4.7757     3.3447    19.4183 </r>
       <r>     4.8716     3.0589    19.7114 </r>
       <r>     4.9674     0.7959    19.7877 </r>
       <r>     5.0632     2.8639    20.0621 </r>
       <r>     5.1590     2.6692    20.3178 </r>
       <r>     5.2548     1.4086    20.4528 </r>
       <r>     5.3507     2.3080    20.6740 </r>
       <r>     5.4465     2.4377    20.9075 </r>
       <r>     5.5423     4.0952    21.2999 </r>
       <r>     5.6381     3.4597    21.6315 </r>
       <r>     5.7339     2.7422    21.8942 </r>
       <r>     5.8298     3.4001    22.2200 </r>
       <r>     5.9256     5.2258    22.7207 </r>
       <r>     6.0214     3.7081    23.0761 </r>
       <r>     6.1172     3.4657    23.4081 </r>
       <r>     6.2130     2.7041    23.6672 </r>
       <r>     6.3089     3.8667    24.0377 </r>
       <r>     6.4047     5.8495    24.5983 </r>
       <r>     6.5005     6.8177    25.2515 </r>
       <r>     6.5963     4.3254    25.6660 </r>
       <r>     6.6921     1.8237    25.8407 </r>
       <r>     6.7880     1.4982    25.9843 </r>
       <r>     6.8838     1.7753    26.1544 </r>
       <r>     6.9796     2.5324    26.3970 </r>
       <r>     7.0754     0.5986    26.4544 </r>
       <r>     7.1712     3.3444    26.7749 </r>
       <r>     7.2671     4.8364    27.2383 </r>
       <r>     7.3629     0.5545    27.2914 </r>
       <r>     7.4587     1.2521    27.4114 </r>
       <r>     7.5545     1.0217    27.5093 </r>
       <r>     7.6503     2.4111    27.7403 </r>
       <r>     7.7462     1.9846    27.9305 </r>
       <r>     7.8420     7.2921    28.6292 </r>
       <r>     7.9378     5.5600    29.1620 </r>
       <r>     8.0336     7.2812    29.8597 </r>
       <r>     8.1294     6.0641    30.4407 </r>
       <r>     8.2253     3.0361    30.7317 </r>
       <r>     8.3211     2.5801    30.9789 </r>
       <r>     8.4169     1.4062    31.1136 </r>
       <r>     8.5127     2.4534    31.3487 </r>
       <r>     8.6085     5.1094    31.8383 </r>
       <r>     8.7044     1.6221    31.9937 </r>
       <r>     8.8002     0.0655    32.0000 </r>
       <r>     8.8960     0.0000    32.0000 </r>
       <r>     8.9918     0.0000    32.0000 </r>
       <r>     9.0876     0.0000    32.0000 </r>
       <r>     9.1835     0.0000    32.0000 </r>
       <r>     9.2793     0.0000    32.0000 </r>
       <r>     9.3751     0.0000    32.0000 </r>
       <r>     9.4709     0.0000    32.0000 </r>
       <r>     9.5667     0.0000    32.0000 </r>
       <r>     9.6626     0.0000    32.0000 </r>
       <r>     9.7584     0.0000    32.0000 </r>
       <r>     9.8542     0.0000    32.0000 </r>
       <r>     9.9500     0.0000    32.0000 </r>
      </set>
     </set>
    </array>
   </total>
   <partial>
    <array>
     <dimension dim="1">gridpoints</dimension>
     <dimension dim="2">spin</dimension>
     <dimension dim="3">ion</dimension>
     <field>energy</field>
     <field>  s</field>
     <field> py</field>
     <field> pz</field>
     <field> px</field>
     <field>dxy</field>
     <field>dyz</field>
     <field>dz2</field>
     <field>dxz</field>
     <field>dx2</field>
     <set>
      <set comment="ion 1">
       <set comment="spin 1">
        <r>   -18.7960     0.0000     0.0000     0.0000     0.0000     0.0000     0.0000     0.0000     0.0000     0.0000 </r>
        <r>   -18.7001     0.0000     0.0000     0.0000     0.0000     0.0000     0.0000     0.0000     0.0000     0.0000 </r>
        <r>   -18.6043     0.0000     0.0000     0.0000     0.0000     0.0000     0.0000     0.0000     0.0000     0.0000 </r>
        <r>   -18.5085     0.0000     0.0000     0.0000     0.0000     0.0000     0.0000     0.0000     0.0000     0.0000 </r>
        <r>   -18.4127     0.0000     0.0000     0.0000     0.0000     0.0000     0.0000     0.0000     0.0000     0.0000 </r>
        <r>   -18.3169     0.0000     0.0000     0.0000     0.0000     0.0000     0.0000     0.0000     0.0000     0.0000 </r>
        <r>   -18.2210     0.0000     0.0000     0.0000     0.0000     0.0000     0.0000     0.0000     0.0000     0.0000 </r>
        <r>   -18.1252     0.0000     0.0000     0.0000     0.0000     0.0000     0.0000     0.0000     0.0000     0.0000 </r>
        <r>   -18.0294     0.0000     0.0000     0.0000     0.0000     0.0000     0.0000     0.0000     0.0000     0.0000 </r>
        <r>   -17.9336     0.0000     0.0000     0.0000     0.0000     0.0000     0.0000     0.0000     0.0000     0.0000 </r>
        <r>   -17.8378     0.0000     0.0000     0.0000     0.0000     0.0000     0.0000     0.0000     0.0000     0.0000 </r>
        <r>   -17.7419     0.0000     0.0000     0.0000     0.0000     0.0000     0.0000     0.0000     0.0000     0.0000 </r>
        <r>   -17.6461     0.0000     0.0000     0.0000     0.0000     0.0000     0.0000     0.0000     0.0000     0.0000 </r>
        <r>   -17.5503     0.0042     0.0000     0.0000     0.0000     0.0000     0.0000     0.0001     0.0000     0.0000 </r>
        <r>   -17.4545     0.0788     0.0000     0.0000     0.0000     0.0000     0.0000     0.0019     0.0000     0.0000 </r>
        <r>   -17.3587     0.0336     0.0001     0.0000     0.0003     0.0000     0.0000     0.0008     0.0000     0.0000 </r>
        <r>   -17.2628     0.4445     0.0024     0.0000     0.0072     0.0004     0.0000     0.0103     0.0000     0.0001 </r>
        <r>   -17.1670     0.1170     0.0006     0.0000     0.0019     0.0001     0.0000     0.0027     0.0000     0.0000 </r>
        <r>   -17.0712     0.0001     0.0000     0.0000     0.0000     0.0000     0.0000     0.0000     0.0000     0.0000 </r>
        <r>   -16.9754     0.0100     0.0005     0.0000     0.0002     0.0000     0.0000     0.0002     0.0000     0.0000 </r>
        <r>   -16.8796     0.3919     0.0195     0.0000     0.0067     0.0005     0.0000     0.0085     0.0000     0.0011 </r>
        <r>   -16.7837     0.1557     0.0075     0.0000     0.0031     0.0002     0.0000     0.0034     0.0000     0.0004 </r>
        <r>   -16.6879     0.3739     0.0085     0.0000     0.0254     0.0017     0.0000     0.0078     0.0000     0.0006 </r>
        <r>   -16.5921     0.1514     0.0034     0.0000     0.0103     0.0007     0.0000     0.0032     0.0000     0.0002 </r>
        <r>   -16.4963     0.0003     0.0000     0.0000     0.0000     0.0000     0.0000     0.0000     0.0000     0.0000 </r>
        <r>   -16.4005     0.0000     0.0000     0.0000     0.0000     0.0000     0.0000     0.0000     0.0000     0.0000 </r>
        <r>   -16.3046     0.0000     0.0000     0.0000     0.0000     0.0000     0.0000     0.0000     0.0000     0.0000 </r>
        <r>   -16.2088     0.0209     0.0020     0.0000     0.0016     0.0002     0.0000     0.0004     0.0000     0.0001 </r>
        <r>   -16.1130     0.7127     0.0675     0.0000     0.0538     0.0053     0.0000     0.0134     0.0000     0.0042 </r>
        <r>   -16.0172     0.2394     0.0227     0.0000     0.0181     0.0018     0.0000     0.0045     0.0000     0.0014 </r>
        <r>   -15.9214     0.0003     0.0000     0.0000     0.0000     0.0000     0.0000     0.0000     0.0000     0.0000 </r>
        <r>   -15.8255     0.0303     0.0017     0.0000     0.0052     0.0005     0.0000     0.0005     0.0000     0.0002 </r>
        <r>   -15.7297     0.3715     0.0214     0.0000     0.0643     0.0058     0.0000     0.0065     0.0000     0.0019 </r>
        <r>   -15.6339     0.0511     0.0029     0.0000     0.0088     0.0008     0.0000     0.0009     0.0000     0.0003 </r>
        <r>   -15.5381     0.0000     0.0000     0.0000     0.0000     0.0000     0.0000     0.0000     0.0000     0.0000 </r>
        <r>   -15.4423     0.0000     0.0000     0.0000     0.0000     0.0000     0.0000     0.0000     0.0000     0.0000 </r>
        <r>   -15.3464     0.0002     0.0001     0.0000     0.0000     0.0000     0.0000     0.0000     0.0000     0.0000 </r>
        <r>   -15.2506     0.1175     0.0295     0.0000     0.0119     0.0017     0.0000     0.0018     0.0000     0.0024 </r>
        <r>   -15.1548     0.2863     0.0707     0.0000     0.0306     0.0043     0.0000     0.0044     0.0000     0.0058 </r>
        <r>   -15.0590     0.5443     0.0951     0.0000     0.1195     0.0159     0.0000     0.0081     0.0000     0.0075 </r>
        <r>   -14.9632     0.1991     0.0346     0.0000     0.0440     0.0059     0.0000     0.0029     0.0000     0.0027 </r>
        <r>   -14.8673     0.0003     0.0001     0.0000     0.0001     0.0000     0.0000     0.0000     0.0000     0.0000 </r>
        <r>   -14.7715     0.0033     0.0005     0.0000     0.0014     0.0002     0.0000     0.0000     0.0000     0.0001 </r>
        <r>   -14.6757     0.2026     0.0284     0.0000     0.0853     0.0113     0.0000     0.0027     0.0000     0.0038 </r>
        <r>   -14.5799     0.1063     0.0149     0.0000     0.0447     0.0060     0.0000     0.0014     0.0000     0.0020 </r>
        <r>   -14.4841     0.0003     0.0000     0.0000     0.0001     0.0000     0.0000     0.0000     0.0000     0.0000 </r>
        <r>   -14.3882     0.0026     0.0007     0.0000     0.0017     0.0003     0.0000     0.0000     0.0000     0.0001 </r>
        <r>   -14.2924     0.1528     0.0406     0.0000     0.1003     0.0146     0.0000     0.0018     0.0000     0.0060 </r>
        <r>   -14.1966     0.3095     0.1472     0.0000     0.1674     0.0258     0.0000     0.0036     0.0000     0.0167 </r>
        <r>   -14.1008     0.1914     0.1043     0.0000     0.0963     0.0152     0.0000     0.0022     0.0000     0.0113 </r>
        <r>   -14.0050     0.0010     0.0005     0.0000     0.0005     0.0001     0.0000     0.0000     0.0000     0.0001 </r>
        <r>   -13.9091     0.0000     0.0000     0.0000     0.0000     0.0000     0.0000     0.0000     0.0000     0.0000 </r>
        <r>   -13.8133     0.0000     0.0000     0.0000     0.0000     0.0000     0.0000     0.0000     0.0000     0.0000 </r>
        <r>   -13.7175     0.0000     0.0032     0.0000     0.0032     0.0004     0.0000     0.0000     0.0000     0.0004 </r>
        <r>   -13.6217     0.0000     0.0426     0.0000     0.0426     0.0060     0.0000     0.0000     0.0000     0.0060 </r>
        <r>   -13.5259     0.0000     0.0064     0.0000     0.0064     0.0009     0.0000     0.0000     0.0000     0.0009 </r>
        <r>   -13.4300     0.0000     0.0000     0.0000     0.0000     0.0000     0.0000     0.0000     0.0000     0.0000 </r>
        <r>   -13.3342     0.0000     0.0000     0.0000     0.0000     0.0000     0.0000     0.0000     0.0000     0.0000 </r>
        <r>   -13.2384     0.0000     0.0000     0.0000     0.0000     0.0000     0.0000     0.0000     0.0000     0.0000 </r>
        <r>   -13.1426     0.0000     0.0000     0.0000     0.0000     0.0000     0.0000     0.0000     0.0000     0.0000 </r>
        <r>   -13.0468     0.0000     0.0000     0.0000     0.0000     0.0000     0.0000     0.0000     0.0000     0.0000 </r>
        <r>   -12.9509     0.0000     0.0000     0.0000     0.0000     0.0000     0.0000     0.0000     0.0000     0.0000 </r>
        <r>   -12.8551     0.0000     0.0000     0.0000     0.0000     0.0000     0.0000     0.0000     0.0000     0.0000 </r>
        <r>   -12.7593     0.0000     0.0000     0.0000     0.0000     0.0000     0.0000     0.0000     0.0000     0.0000 </r>
        <r>   -12.6635     0.0000     0.0000     0.0000     0.0000     0.0000     0.0000     0.0000     0.0000     0.0000 </r>
        <r>   -12.5677     0.0000     0.0000     0.0000     0.0000     0.0000     0.0000     0.0000     0.0000     0.0000 </r>
        <r>   -12.4718     0.0000     0.0000     0.0000     0.0000     0.0000     0.0000     0.0000     0.0000     0.0000 </r>
        <r>   -12.3760     0.0000     0.0000     0.0000     0.0000     0.0000     0.0000     0.0000     0.0000     0.0000 </r>
        <r>   -12.2802     0.0000     0.0000     0.0000     0.0000     0.0000     0.0000     0.0000     0.0000     0.0000 </r>
        <r>   -12.1844     0.0000     0.0000     0.0000     0.0000     0.0000     0.0000     0.0000     0.0000     0.0000 </r>
        <r>   -12.0886     0.0001     0.0000     0.0000     0.0000     0.0000     0.0000     0.0000     0.0000     0.0000 </r>
        <r>   -11.9927     0.1149     0.0073     0.0000     0.0218     0.0000     0.0000     0.0005     0.0000     0.0001 </r>
        <r>   -11.8969     0.6837     0.0315     0.0000     0.0944     0.0002     0.0000     0.0032     0.0000     0.0005 </r>
        <r>   -11.8011     0.1370     0.0015     0.0000     0.0045     0.0000     0.0000     0.0006     0.0000     0.0000 </r>
        <r>   -11.7053     0.1653     0.0156     0.0000     0.0469     0.0018     0.0000     0.0007     0.0000     0.0006 </r>
        <r>   -11.6095     0.5344     0.0385     0.0000     0.1277     0.0047     0.0000     0.0021     0.0000     0.0033 </r>
        <r>   -11.5136     1.1065     0.0305     0.0000     0.1663     0.0049     0.0000     0.0042     0.0000     0.0122 </r>
        <r>   -11.4178     0.0745     0.0020     0.0000     0.0111     0.0003     0.0000     0.0003     0.0000     0.0008 </r>
        <r>   -11.3220     0.0000     0.0000     0.0000     0.0000     0.0000     0.0000     0.0000     0.0000     0.0000 </r>
        <r>   -11.2262     0.0000     0.0000     0.0000     0.0000     0.0000     0.0000     0.0000     0.0000     0.0000 </r>
        <r>   -11.1304     0.0000     0.0000     0.0000     0.0000     0.0000     0.0000     0.0000     0.0000     0.0000 </r>
        <r>   -11.0345     0.0000     0.0000     0.0000     0.0000     0.0000     0.0000     0.0000     0.0000     0.0000 </r>
        <r>   -10.9387     0.0280     0.0025     0.0000     0.0107     0.0007     0.0000     0.0001     0.0000     0.0006 </r>
        <r>   -10.8429     0.7126     0.0627     0.0000     0.2739     0.0176     0.0000     0.0016     0.0000     0.0166 </r>
        <r>   -10.7471     0.1886     0.0166     0.0000     0.0725     0.0047     0.0000     0.0004     0.0000     0.0044 </r>
        <r>   -10.6513     0.0002     0.0000     0.0000     0.0001     0.0000     0.0000     0.0000     0.0000     0.0000 </r>
        <r>   -10.5554     0.0000     0.0000     0.0000     0.0000     0.0000     0.0000     0.0000     0.0000     0.0000 </r>
        <r>   -10.4596     0.0000     0.0000     0.0000     0.0000     0.0000     0.0000     0.0000     0.0000     0.0000 </r>
        <r>   -10.3638     0.0020     0.0005     0.0000     0.0004     0.0000     0.0000     0.0000     0.0000     0.0001 </r>
        <r>   -10.2680     0.2471     0.0604     0.0000     0.0492     0.0047     0.0000     0.0003     0.0000     0.0131 </r>
        <r>   -10.1722     0.2175     0.0531     0.0000     0.0433     0.0041     0.0000     0.0002     0.0000     0.0115 </r>
        <r>   -10.0763     0.0012     0.0003     0.0000     0.0002     0.0000     0.0000     0.0000     0.0000     0.0001 </r>
        <r>    -9.9805     0.0207     0.0038     0.0000     0.0113     0.0015     0.0000     0.0000     0.0000     0.0005 </r>
        <r>    -9.8847     0.2969     0.0539     0.0000     0.1618     0.0221     0.0000     0.0002     0.0000     0.0074 </r>
        <r>    -9.7889     0.0473     0.0086     0.0000     0.0258     0.0035     0.0000     0.0000     0.0000     0.0012 </r>
        <r>    -9.6931     0.0000     0.0000     0.0000     0.0000     0.0000     0.0000     0.0000     0.0000     0.0000 </r>
        <r>    -9.5972     0.0000     0.0000     0.0000     0.0000     0.0000     0.0000     0.0000     0.0000     0.0000 </r>
        <r>    -9.5014     0.0000     0.0000     0.0000     0.0000     0.0000     0.0000     0.0000     0.0000     0.0000 </r>
        <r>    -9.4056     0.0000     0.0000     0.0000     0.0000     0.0000     0.0000     0.0000     0.0000     0.0000 </r>
        <r>    -9.3098     0.0000     0.0000     0.0000     0.0000     0.0000     0.0000     0.0000     0.0000     0.0000 </r>
        <r>    -9.2140     0.0000     0.0022     0.0000     0.0022     0.0000     0.0000     0.0000     0.0000     0.0000 </r>
        <r>    -9.1181     0.0000     0.0665     0.0000     0.0665     0.0000     0.0000     0.0000     0.0000     0.0000 </r>
        <r>    -9.0223     0.0090     0.0231     0.0000     0.0258     0.0007     0.0000     0.0000     0.0000     0.0008 </r>
        <r>    -8.9265     0.4425     0.1218     0.0000     0.2528     0.0332     0.0000     0.0000     0.0000     0.0374 </r>
        <r>    -8.8307     0.1987     0.0547     0.0000     0.1135     0.0149     0.0000     0.0000     0.0000     0.0168 </r>
        <r>    -8.7349     0.0004     0.0001     0.0000     0.0002     0.0000     0.0000     0.0000     0.0000     0.0000 </r>
        <r>    -8.6390     0.0000     0.0000     0.0000     0.0000     0.0000     0.0000     0.0000     0.0000     0.0000 </r>
        <r>    -8.5432     0.0017     0.0142     0.0000     0.0100     0.0002     0.0000     0.0000     0.0000     0.0003 </r>
        <r>    -8.4474     0.0541     0.4465     0.0000     0.3130     0.0064     0.0000     0.0000     0.0000     0.0087 </r>
        <r>    -8.3516     0.0170     0.1402     0.0000     0.0983     0.0020     0.0000     0.0000     0.0000     0.0027 </r>
        <r>    -8.2558     0.0000     0.0002     0.0000     0.0001     0.0000     0.0000     0.0000     0.0000     0.0000 </r>
        <r>    -8.1599     0.0000     0.0000     0.0000     0.0000     0.0000     0.0000     0.0000     0.0000     0.0000 </r>
        <r>    -8.0641     0.0000     0.0000     0.0000     0.0000     0.0000     0.0000     0.0000     0.0000     0.0000 </r>
        <r>    -7.9683     0.0000     0.0000     0.0000     0.0000     0.0000     0.0000     0.0000     0.0000     0.0000 </r>
        <r>    -7.8725     0.0000     0.0000     0.0000     0.0000     0.0000     0.0000     0.0000     0.0000     0.0000 </r>
        <r>    -7.7767     0.0225     0.0350     0.0000     0.0574     0.0060     0.0000     0.0000     0.0000     0.0026 </r>
        <r>    -7.6808     0.2211     0.2383     0.0000     0.4295     0.0554     0.0000     0.0002     0.0000     0.0220 </r>
        <r>    -7.5850     0.0254     0.0194     0.0000     0.0391     0.0061     0.0000     0.0000     0.0000     0.0023 </r>
        <r>    -7.4892     0.0000     0.0000     0.0000     0.0000     0.0000     0.0000     0.0000     0.0000     0.0000 </r>
        <r>    -7.3934     0.0000     0.0003     0.0000     0.0001     0.0000     0.0000     0.0000     0.0000     0.0000 </r>
        <r>    -7.2976     0.0115     0.1188     0.0001     0.0478     0.0025     0.0000     0.0000     0.0000     0.0042 </r>
        <r>    -7.2017     0.0234     0.2421     0.0261     0.0974     0.0051     0.0000     0.0000     0.0000     0.0087 </r>
        <r>    -7.1059     0.0084     0.0901     0.0297     0.0367     0.0020     0.0000     0.0000     0.0000     0.0052 </r>
        <r>    -7.0101     0.1465     0.6862     0.0804     0.2893     0.0230     0.0002     0.0004     0.0006     0.0630 </r>
        <r>    -6.9143     0.1138     0.1565     0.2437     0.0754     0.0125     0.0006     0.0004     0.0019     0.0366 </r>
        <r>    -6.8185     0.0009     0.0009     0.0073     0.0005     0.0001     0.0000     0.0000     0.0001     0.0003 </r>
        <r>    -6.7226     0.0000     0.0000     0.0000     0.0000     0.0000     0.0000     0.0000     0.0000     0.0000 </r>
        <r>    -6.6268     0.0000     0.0000     0.0136     0.0000     0.0000     0.0003     0.0000     0.0001     0.0000 </r>
        <r>    -6.5310     0.0001     0.0586     0.2542     0.0199     0.0010     0.0062     0.0000     0.0021     0.0029 </r>
        <r>    -6.4352     0.0189     0.6076     0.0571     0.2715     0.0240     0.0013     0.0001     0.0006     0.0439 </r>
        <r>    -6.3394     0.0224     0.3555     0.2235     0.2003     0.0227     0.0025     0.0001     0.0074     0.0345 </r>
        <r>    -6.2435     0.0002     0.0031     0.0835     0.0017     0.0002     0.0009     0.0000     0.0028     0.0003 </r>
        <r>    -6.1477     0.0000     0.1117     0.0001     0.0372     0.0033     0.0000     0.0000     0.0000     0.0100 </r>
        <r>    -6.0519     0.0000     0.2672     0.0000     0.0891     0.0080     0.0000     0.0000     0.0000     0.0240 </r>
        <r>    -5.9561     0.0000     0.0059     0.0000     0.0020     0.0002     0.0000     0.0000     0.0000     0.0005 </r>
        <r>    -5.8603     0.0000     0.0000     0.0021     0.0000     0.0000     0.0001     0.0000     0.0001     0.0000 </r>
        <r>    -5.7644     0.0000     0.0000     0.2931     0.0000     0.0000     0.0131     0.0000     0.0108     0.0000 </r>
        <r>    -5.6686     0.0009     0.0007     0.2845     0.0022     0.0008     0.0127     0.0000     0.0105     0.0003 </r>
        <r>    -5.5728     0.0653     0.0583     0.0018     0.1658     0.0554     0.0001     0.0008     0.0001     0.0189 </r>
        <r>    -5.4770     0.0444     0.3480     0.0034     0.3684     0.0906     0.0001     0.0005     0.0003     0.0649 </r>
        <r>    -5.3812     0.0023     0.1913     0.1832     0.1306     0.0272     0.0050     0.0000     0.0149     0.0333 </r>
        <r>    -5.2853     0.0000     0.0007     0.0873     0.0004     0.0001     0.0024     0.0000     0.0071     0.0001 </r>
        <r>    -5.1895     0.0000     0.0000     0.0002     0.0000     0.0000     0.0000     0.0000     0.0000     0.0000 </r>
        <r>    -5.0937     0.0000     0.0000     0.0000     0.0000     0.0000     0.0000     0.0000     0.0000     0.0000 </r>
        <r>    -4.9979     0.0000     0.0000     0.0000     0.0000     0.0000     0.0000     0.0000     0.0000     0.0000 </r>
        <r>    -4.9021     0.0000     0.0002     0.0186     0.0001     0.0000     0.0022     0.0000     0.0010     0.0001 </r>
        <r>    -4.8062     0.0000     0.0924     0.2004     0.0308     0.0098     0.0234     0.0000     0.0104     0.0293 </r>
        <r>    -4.7104     0.0000     0.2093     0.2940     0.0698     0.0221     0.0240     0.0000     0.0297     0.0664 </r>
        <r>    -4.6146     0.0000     0.0043     0.1858     0.0014     0.0005     0.0146     0.0000     0.0196     0.0014 </r>
        <r>    -4.5188     0.0000     0.0029     0.0007     0.0029     0.0012     0.0001     0.0000     0.0001     0.0012 </r>
        <r>    -4.4230     0.0000     0.0501     0.0257     0.0501     0.0205     0.0016     0.0000     0.0047     0.0205 </r>
        <r>    -4.3271     0.0000     0.0094     0.1615     0.0094     0.0039     0.0098     0.0000     0.0294     0.0039 </r>
        <r>    -4.2313     0.0000     0.0000     0.0113     0.0000     0.0000     0.0007     0.0000     0.0021     0.0000 </r>
        <r>    -4.1355     0.0000     0.0000     0.0008     0.0000     0.0000     0.0001     0.0000     0.0002     0.0000 </r>
        <r>    -4.0397     0.0000     0.0000     0.0840     0.0000     0.0000     0.0092     0.0000     0.0226     0.0000 </r>
        <r>    -3.9439     0.0000     0.0000     0.0907     0.0000     0.0000     0.0135     0.0000     0.0240     0.0000 </r>
        <r>    -3.8480     0.0000     0.0000     0.2070     0.0000     0.0000     0.0532     0.0000     0.0525     0.0000 </r>
        <r>    -3.7522     0.0000     0.0000     0.0198     0.0000     0.0000     0.0051     0.0000     0.0050     0.0000 </r>
        <r>    -3.6564     0.0000     0.0000     0.0000     0.0000     0.0000     0.0000     0.0000     0.0000     0.0000 </r>
        <r>    -3.5606     0.0000     0.0000     0.0000     0.0000     0.0000     0.0000     0.0000     0.0000     0.0000 </r>
        <r>    -3.4648     0.0000     0.0000     0.0000     0.0000     0.0000     0.0027     0.0000     0.0027     0.0000 </r>
        <r>    -3.3689     0.0000     0.0000     0.0000     0.0000     0.0000     0.0111     0.0000     0.0111     0.0000 </r>
        <r>    -3.2731     0.0000     0.0000     0.0000     0.0000     0.0000     0.0005     0.0000     0.0005     0.0000 </r>
        <r>    -3.1773     0.0000     0.0000     0.0000     0.0000     0.0000     0.0000     0.0000     0.0000     0.0000 </r>
        <r>    -3.0815     0.0000     0.0000     0.0000     0.0000     0.0000     0.0000     0.0000     0.0000     0.0000 </r>
        <r>    -2.9857     0.0000     0.0000     0.0000     0.0000     0.0000     0.0000     0.0000     0.0000     0.0000 </r>
        <r>    -2.8898     0.0000     0.0000     0.0000     0.0000     0.0000     0.0000     0.0000     0.0000     0.0000 </r>
        <r>    -2.7940     0.0000     0.0000     0.0000     0.0000     0.0000     0.0000     0.0000     0.0000     0.0000 </r>
        <r>    -2.6982     0.0000     0.0000     0.0000     0.0000     0.0000     0.0000     0.0000     0.0000     0.0000 </r>
        <r>    -2.6024     0.0000     0.0000     0.0000     0.0000     0.0000     0.0000     0.0000     0.0000     0.0000 </r>
        <r>    -2.5066     0.0000     0.0000     0.0000     0.0000     0.0000     0.0000     0.0000     0.0000     0.0000 </r>
        <r>    -2.4107     0.0000     0.0000     0.0000     0.0000     0.0000     0.0000     0.0000     0.0000     0.0000 </r>
        <r>    -2.3149     0.0000     0.0000     0.0000     0.0000     0.0000     0.0000     0.0000     0.0000     0.0000 </r>
        <r>    -2.2191     0.0000     0.0000     0.0000     0.0000     0.0000     0.0000     0.0000     0.0000     0.0000 </r>
        <r>    -2.1233     0.0000     0.0000     0.0000     0.0000     0.0000     0.0000     0.0000     0.0000     0.0000 </r>
        <r>    -2.0275     0.0000     0.0000     0.0000     0.0000     0.0000     0.0000     0.0000     0.0000     0.0000 </r>
        <r>    -1.9316     0.0000     0.0000     0.0000     0.0000     0.0000     0.0000     0.0000     0.0000     0.0000 </r>
        <r>    -1.8358     0.0000     0.0000     0.0000     0.0000     0.0000     0.0000     0.0000     0.0000     0.0000 </r>
        <r>    -1.7400     0.0000     0.0000     0.0000     0.0000     0.0000     0.0000     0.0000     0.0000     0.0000 </r>
        <r>    -1.6442     0.0000     0.0000     0.0000     0.0000     0.0000     0.0000     0.0000     0.0000     0.0000 </r>
        <r>    -1.5484     0.0000     0.0000     0.0000     0.0000     0.0000     0.0000     0.0000     0.0000     0.0000 </r>
        <r>    -1.4525     0.0000     0.0000     0.0000     0.0000     0.0000     0.0000     0.0000     0.0000     0.0000 </r>
        <r>    -1.3567     0.0000     0.0000     0.0022     0.0000     0.0000     0.0000     0.0000     0.0000     0.0000 </r>
        <r>    -1.2609     0.0000     0.0000     0.1563     0.0000     0.0000     0.0000     0.0000     0.0000     0.0000 </r>
        <r>    -1.1651     0.0000     0.0000     0.0936     0.0000     0.0000     0.0000     0.0000     0.0000     0.0000 </r>
        <r>    -1.0693     0.0000     0.0000     0.0953     0.0000     0.0000     0.0019     0.0000     0.0056     0.0000 </r>
        <r>    -0.9734     0.0000     0.0000     0.4469     0.0000     0.0000     0.0086     0.0000     0.0255     0.0000 </r>
        <r>    -0.8776     0.0000     0.0000     0.9092     0.0000     0.0000     0.0093     0.0000     0.0303     0.0000 </r>
        <r>    -0.7818     0.0046     0.0000     0.4662     0.0000     0.0000     0.0081     0.0028     0.0251     0.0000 </r>
        <r>    -0.6860     0.0197     0.0000     0.2737     0.0000     0.0000     0.0078     0.0120     0.0233     0.0000 </r>
        <r>    -0.5902     0.0009     0.0000     0.0031     0.0000     0.0000     0.0001     0.0005     0.0003     0.0000 </r>
        <r>    -0.4943     0.0000     0.0000     0.0000     0.0000     0.0000     0.0000     0.0000     0.0000     0.0000 </r>
        <r>    -0.3985     0.0000     0.0000     0.0000     0.0000     0.0000     0.0000     0.0000     0.0000     0.0000 </r>
        <r>    -0.3027     0.0135     0.0009     0.0003     0.0026     0.0009     0.0000     0.0157     0.0000     0.0003 </r>
        <r>    -0.2069     0.0602     0.0038     0.2057     0.0115     0.0041     0.0055     0.0698     0.0184     0.0014 </r>
        <r>    -0.1111     0.0029     0.0002     0.6445     0.0005     0.0002     0.0171     0.0033     0.0576     0.0001 </r>
        <r>    -0.0152     0.0009     0.0001     0.0201     0.0002     0.0004     0.0005     0.0002     0.0018     0.0001 </r>
        <r>     0.0806     0.1364     0.0122     0.0027     0.0367     0.0571     0.0002     0.0254     0.0001     0.0190 </r>
        <r>     0.1764     0.1378     0.0123     0.2508     0.0370     0.0577     0.0141     0.0256     0.0110     0.0192 </r>
        <r>     0.2722     0.0190     0.0027     0.1796     0.0070     0.0061     0.0101     0.0114     0.0079     0.0022 </r>
        <r>     0.3680     0.3002     0.0436     0.0008     0.1173     0.0928     0.0000     0.1916     0.0000     0.0326 </r>
        <r>     0.4639     0.0598     0.0089     0.0000     0.0246     0.0177     0.0000     0.0404     0.0000     0.0062 </r>
        <r>     0.5597     0.0000     0.0000     0.0175     0.0000     0.0000     0.0007     0.0000     0.0021     0.0000 </r>
        <r>     0.6555     0.0000     0.0000     0.2733     0.0000     0.0000     0.0111     0.0000     0.0334     0.0000 </r>
        <r>     0.7513     0.0000     0.0000     0.0471     0.0000     0.0000     0.0019     0.0000     0.0058     0.0000 </r>
        <r>     0.8471     0.0001     0.0000     0.0000     0.0000     0.0000     0.0000     0.0000     0.0000     0.0000 </r>
        <r>     0.9430     0.0552     0.0097     0.0000     0.0152     0.0245     0.0000     0.0185     0.0000     0.0088 </r>
        <r>     1.0388     0.4145     0.0580     0.0001     0.1484     0.1759     0.0000     0.2264     0.0000     0.0481 </r>
        <r>     1.1346     0.3989     0.0479     0.0176     0.1357     0.1707     0.0011     0.1650     0.0018     0.0408 </r>
        <r>     1.2304     0.0152     0.0014     0.4093     0.0037     0.0051     0.0259     0.0040     0.0422     0.0012 </r>
        <r>     1.3262     0.0000     0.0000     0.1006     0.0000     0.0000     0.0065     0.0000     0.0107     0.0000 </r>
        <r>     1.4220     0.0370     0.0009     0.0001     0.0026     0.0015     0.0000     0.0036     0.0000     0.0005 </r>
        <r>     1.5179     0.1180     0.0027     0.0055     0.0082     0.0049     0.0014     0.0115     0.0009     0.0016 </r>
        <r>     1.6137     0.0046     0.0001     0.0547     0.0003     0.0002     0.0067     0.0004     0.0111     0.0001 </r>
        <r>     1.7095     0.0317     0.0025     0.0145     0.0076     0.0059     0.0011     0.0010     0.0031     0.0020 </r>
        <r>     1.8053     0.1474     0.0170     0.0000     0.0510     0.0401     0.0000     0.0062     0.0000     0.0134 </r>
        <r>     1.9011     0.0266     0.0017     0.0000     0.0050     0.0039     0.0000     0.0013     0.0000     0.0014 </r>
        <r>     1.9970     0.1865     0.0049     0.0000     0.0142     0.0135     0.0000     0.0196     0.0000     0.0088 </r>
        <r>     2.0928     0.0741     0.0033     0.0000     0.0080     0.0091     0.0000     0.0451     0.0000     0.0050 </r>
        <r>     2.1886     0.0660     0.0048     0.0000     0.0103     0.0123     0.0000     0.0915     0.0000     0.0048 </r>
        <r>     2.2844     0.0427     0.0035     0.0000     0.0105     0.0173     0.0000     0.0045     0.0000     0.0055 </r>
        <r>     2.3802     0.3150     0.0248     0.0002     0.0749     0.1250     0.0000     0.0288     0.0000     0.0406 </r>
        <r>     2.4761     0.1488     0.0070     0.0004     0.0176     0.0320     0.0000     0.0194     0.0000     0.0171 </r>
        <r>     2.5719     0.0540     0.0061     0.0093     0.0122     0.0181     0.0003     0.0308     0.0009     0.0052 </r>
        <r>     2.6677     0.2711     0.0285     0.0329     0.0395     0.0884     0.0013     0.2227     0.0024     0.0196 </r>
        <r>     2.7635     0.0238     0.0025     0.2104     0.0034     0.0078     0.0098     0.0196     0.0130     0.0017 </r>
        <r>     2.8593     0.0000     0.0000     0.0191     0.0000     0.0000     0.0011     0.0000     0.0010     0.0000 </r>
        <r>     2.9552     0.0000     0.0000     0.0185     0.0000     0.0000     0.0005     0.0000     0.0006     0.0000 </r>
        <r>     3.0510     0.0020     0.0000     0.1700     0.0000     0.0000     0.0045     0.0001     0.0051     0.0000 </r>
        <r>     3.1468     0.0119     0.0006     0.0177     0.0006     0.0014     0.0005     0.0014     0.0005     0.0007 </r>
        <r>     3.2426     0.0921     0.0261     0.0000     0.0366     0.0530     0.0000     0.0444     0.0000     0.0259 </r>
        <r>     3.3384     0.1685     0.1711     0.0105     0.1200     0.0978     0.0001     0.0497     0.0004     0.1039 </r>
        <r>     3.4343     0.1435     0.0570     0.0536     0.0275     0.0559     0.0007     0.0462     0.0020     0.0661 </r>
        <r>     3.5301     0.0025     0.0001     0.0030     0.0001     0.0009     0.0000     0.0007     0.0001     0.0009 </r>
        <r>     3.6259     0.0032     0.0033     0.0000     0.0099     0.0071     0.0000     0.0058     0.0000     0.0024 </r>
        <r>     3.7217     0.0231     0.0491     0.0429     0.1473     0.0628     0.0020     0.0265     0.0010     0.0209 </r>
        <r>     3.8175     0.0320     0.0666     0.2455     0.1981     0.0714     0.0177     0.0428     0.0176     0.0240 </r>
        <r>     3.9134     0.0294     0.0666     0.1493     0.0630     0.0120     0.0248     0.0145     0.0272     0.0170 </r>
        <r>     4.0092     0.0128     0.1130     0.1359     0.1099     0.0253     0.0062     0.0010     0.0063     0.0291 </r>
        <r>     4.1050     0.0036     0.0188     0.0109     0.0163     0.0076     0.0005     0.0061     0.0002     0.0115 </r>
        <r>     4.2008     0.0243     0.0962     0.0886     0.0791     0.0438     0.0078     0.0417     0.0026     0.0706 </r>
        <r>     4.2966     0.0020     0.0104     0.1106     0.0093     0.0054     0.0537     0.0034     0.0436     0.0092 </r>
        <r>     4.3925     0.0030     0.0136     0.1164     0.0144     0.0123     0.1062     0.0025     0.0884     0.0193 </r>
        <r>     4.4883     0.0496     0.0245     0.0014     0.0140     0.0807     0.0020     0.0575     0.0016     0.0681 </r>
        <r>     4.5841     0.0130     0.0478     0.0000     0.0194     0.0355     0.0000     0.0639     0.0000     0.0336 </r>
        <r>     4.6799     0.0239     0.4001     0.0102     0.1616     0.0598     0.0002     0.0169     0.0006     0.1331 </r>
        <r>     4.7757     0.0533     0.0694     0.0426     0.0892     0.0419     0.0008     0.0263     0.0023     0.0271 </r>
        <r>     4.8716     0.0109     0.0545     0.0278     0.0669     0.0257     0.0005     0.0254     0.0014     0.0425 </r>
        <r>     4.9674     0.0089     0.0427     0.0007     0.0475     0.0122     0.0000     0.0019     0.0000     0.0316 </r>
        <r>     5.0632     0.0869     0.1183     0.0126     0.1130     0.0084     0.0097     0.0092     0.0076     0.0691 </r>
        <r>     5.1590     0.0210     0.0285     0.0558     0.0273     0.0020     0.0405     0.0022     0.0337     0.0167 </r>
        <r>     5.2548     0.0086     0.0018     0.0141     0.0044     0.0014     0.0096     0.0049     0.0086     0.0006 </r>
        <r>     5.3507     0.0207     0.0038     0.0006     0.0096     0.0037     0.0003     0.0160     0.0002     0.0015 </r>
        <r>     5.4465     0.0053     0.0015     0.0402     0.0020     0.0145     0.0182     0.0048     0.0113     0.0147 </r>
        <r>     5.5423     0.0112     0.0256     0.0585     0.0376     0.0437     0.0112     0.0733     0.0077     0.0498 </r>
[...]
       </set>
       <set comment="band 13">
        <r>  0.0000  0.0000  0.0450  0.0000  0.0000  0.0098  0.0000  0.0066  0.0000 </r>
        <r>  0.0000  0.0000  0.0127  0.0000  0.0000  0.0000  0.0000  0.0000  0.0000 </r>
       </set>
       <set comment="band 14">
        <r>  0.0145  0.0223  0.0000  0.0299  0.0045  0.0000  0.0118  0.0000  0.0157 </r>
        <r>  0.0007  0.0106  0.0000  0.0034  0.0000  0.0000  0.0000  0.0000  0.0000 </r>
       </set>
       <set comment="band 15">
        <r>  0.0000  0.0000  0.0121  0.0000  0.0000  0.0550  0.0000  0.0529  0.0000 </r>
        <r>  0.0000  0.0000  0.0151  0.0000  0.0000  0.0000  0.0000  0.0000  0.0000 </r>
       </set>
       <set comment="band 16">
        <r>  0.0092  0.0966  0.0000  0.1069  0.0560  0.0000  0.0076  0.0000  0.0710 </r>
        <r>  0.0003  0.1657  0.0000  0.0352  0.0000  0.0000  0.0000  0.0000  0.0000 </r>
       </set>
      </set>
      <set comment="kpoint 8">
       <set comment="band 1">
        <r>  0.2432  0.0423  0.0000  0.0537  0.0072  0.0000  0.0036  0.0000  0.0033 </r>
        <r>  0.3203  0.0091  0.0000  0.0093  0.0000  0.0000  0.0000  0.0000  0.0000 </r>
       </set>
       <set comment="band 2">
        <r>  0.3005  0.0264  0.0000  0.1155  0.0074  0.0000  0.0007  0.0000  0.0070 </r>
        <r>  0.1052  0.0465  0.0000  0.1111  0.0000  0.0000  0.0000  0.0000  0.0000 </r>
       </set>
       <set comment="band 3">
        <r>  0.0203  0.2333  0.0000  0.0949  0.0052  0.0000  0.0000  0.0000  0.0133 </r>
        <r>  0.0091  0.2154  0.0000  0.1033  0.0000  0.0000  0.0000  0.0000  0.0000 </r>
       </set>
       <set comment="band 4">
        <r>  0.0000  0.0000  0.1487  0.0000  0.0000  0.0117  0.0000  0.0156  0.0000 </r>
        <r>  0.0000  0.0000  0.2636  0.0000  0.0000  0.0000  0.0000  0.0000  0.0000 </r>
       </set>
       <set comment="band 5">
        <r>  0.0000  0.0000  0.2816  0.0000  0.0000  0.0075  0.0000  0.0252  0.0000 </r>
        <r>  0.0000  0.0000  0.1482  0.0000  0.0000  0.0000  0.0000  0.0000  0.0000 </r>
       </set>
       <set comment="band 6">
        <r>  0.1372  0.0182  0.0000  0.0474  0.0647  0.0000  0.0486  0.0000  0.0160 </r>
        <r>  0.0959  0.0807  0.0000  0.0574  0.0000  0.0000  0.0000  0.0000  0.0000 </r>
       </set>
       <set comment="band 7">
        <r>  0.0272  0.0046  0.0000  0.0043  0.0152  0.0000  0.0188  0.0000  0.0067 </r>
        <r>  0.0048  0.0011  0.0000  0.0433  0.0000  0.0000  0.0000  0.0000  0.0000 </r>
       </set>
       <set comment="band 8">
        <r>  0.0000  0.0000  0.0363  0.0000  0.0000  0.0032  0.0000  0.0010  0.0000 </r>
        <r>  0.0000  0.0000  0.0160  0.0000  0.0000  0.0000  0.0000  0.0000  0.0000 </r>
       </set>
       <set comment="band 9">
        <r>  0.0007  0.0007  0.0000  0.0008  0.0017  0.0000  0.0045  0.0000  0.0013 </r>
        <r>  0.0017  0.0015  0.0000  0.0099  0.0000  0.0000  0.0000  0.0000  0.0000 </r>
       </set>
       <set comment="band 10">
        <r>  0.0000  0.0000  0.0210  0.0000  0.0000  0.0095  0.0000  0.0059  0.0000 </r>
        <r>  0.0000  0.0000  0.0227  0.0000  0.0000  0.0000  0.0000  0.0000  0.0000 </r>
       </set>
       <set comment="band 11">
        <r>  0.0044  0.0106  0.0000  0.0156  0.0109  0.0000  0.0308  0.0000  0.0135 </r>
        <r>  0.0140  0.0181  0.0000  0.0959  0.0000  0.0000  0.0000  0.0000  0.0000 </r>
       </set>
       <set comment="band 12">
        <r>  0.0199  0.0142  0.0000  0.0276  0.0042  0.0000  0.0115  0.0000  0.0109 </r>
        <r>  0.0055  0.0128  0.0000  0.0699  0.0000  0.0000  0.0000  0.0000  0.0000 </r>
       </set>
       <set comment="band 13">
        <r>  0.0000  0.0000  0.0187  0.0000  0.0000  0.0339  0.0000  0.0294  0.0000 </r>
        <r>  0.0000  0.0000  0.0251  0.0000  0.0000  0.0000  0.0000  0.0000  0.0000 </r>
       </set>
       <set comment="band 14">
        <r>  0.0122  0.0119  0.0000  0.0013  0.0018  0.0000  0.0029  0.0000  0.0141 </r>
        <r>  0.0155  0.0021  0.0000  0.0175  0.0000  0.0000  0.0000  0.0000  0.0000 </r>
       </set>
       <set comment="band 15">
        <r>  0.0000  0.0000  0.0244  0.0000  0.0000  0.0104  0.0000  0.0087  0.0000 </r>
        <r>  0.0000  0.0000  0.0069  0.0000  0.0000  0.0000  0.0000  0.0000  0.0000 </r>
       </set>
       <set comment="band 16">
        <r>  0.0195  0.0378  0.0000  0.0324  0.0009  0.0000  0.0052  0.0000  0.0322 </r>
        <r>  0.0065  0.0114  0.0000  0.0260  0.0000  0.0000  0.0000  0.0000  0.0000 </r>
       </set>
      </set>
      <set comment="kpoint 9">
       <set comment="band 1">
        <r>  0.1482  0.0388  0.0000  0.0975  0.0142  0.0000  0.0018  0.0000  0.0058 </r>
        <r>  0.3872  0.0027  0.0000  0.0049  0.0000  0.0000  0.0000  0.0000  0.0000 </r>
       </set>
       <set comment="band 2">
        <r>  0.4011  0.0260  0.0000  0.0780  0.0002  0.0000  0.0019  0.0000  0.0004 </r>
        <r>  0.0409  0.0408  0.0000  0.1175  0.0000  0.0000  0.0000  0.0000  0.0000 </r>
       </set>
       <set comment="band 3">
        <r>  0.0228  0.2364  0.0000  0.0951  0.0050  0.0000  0.0000  0.0000  0.0085 </r>
        <r>  0.0108  0.2284  0.0000  0.0841  0.0000  0.0000  0.0000  0.0000  0.0000 </r>
       </set>
       <set comment="band 4">
        <r>  0.0000  0.0000  0.0980  0.0000  0.0000  0.0107  0.0000  0.0263  0.0000 </r>
        <r>  0.0000  0.0000  0.3252  0.0000  0.0000  0.0000  0.0000  0.0000  0.0000 </r>
       </set>
       <set comment="band 5">
        <r>  0.0000  0.0000  0.3448  0.0000  0.0000  0.0069  0.0000  0.0202  0.0000 </r>
        <r>  0.0000  0.0000  0.0660  0.0000  0.0000  0.0000  0.0000  0.0000  0.0000 </r>
       </set>
       <set comment="band 6">
        <r>  0.1501  0.0274  0.0000  0.0386  0.0675  0.0000  0.0425  0.0000  0.0251 </r>
        <r>  0.0932  0.0717  0.0000  0.0632  0.0000  0.0000  0.0000  0.0000  0.0000 </r>
       </set>
       <set comment="band 7">
        <r>  0.0019  0.0038  0.0000  0.0033  0.0140  0.0000  0.0528  0.0000  0.0062 </r>
        <r>  0.0051  0.0312  0.0000  0.0922  0.0000  0.0000  0.0000  0.0000  0.0000 </r>
       </set>
       <set comment="band 8">
        <r>  0.0000  0.0000  0.0278  0.0000  0.0000  0.0214  0.0000  0.0166  0.0000 </r>
        <r>  0.0000  0.0000  0.0738  0.0000  0.0000  0.0000  0.0000  0.0000  0.0000 </r>
       </set>
       <set comment="band 9">
        <r>  0.0171  0.0033  0.0000  0.0080  0.0012  0.0000  0.0011  0.0000  0.0006 </r>
        <r>  0.0031  0.0018  0.0000  0.0035  0.0000  0.0000  0.0000  0.0000  0.0000 </r>
       </set>
       <set comment="band 10">
        <r>  0.0000  0.0000  0.0335  0.0000  0.0000  0.0019  0.0000  0.0009  0.0000 </r>
        <r>  0.0000  0.0000  0.0009  0.0000  0.0000  0.0000  0.0000  0.0000  0.0000 </r>
       </set>
       <set comment="band 11">
        <r>  0.0007  0.0007  0.0000  0.0009  0.0024  0.0000  0.0063  0.0000  0.0011 </r>
        <r>  0.0005  0.0055  0.0000  0.0164  0.0000  0.0000  0.0000  0.0000  0.0000 </r>
       </set>
       <set comment="band 12">
        <r>  0.0014  0.0003  0.0000  0.0007  0.0001  0.0000  0.0003  0.0000  0.0000 </r>
        <r>  0.0005  0.0001  0.0000  0.0002  0.0000  0.0000  0.0000  0.0000  0.0000 </r>
       </set>
       <set comment="band 13">
        <r>  0.0000  0.0000  0.0047  0.0000  0.0000  0.0169  0.0000  0.0146  0.0000 </r>
        <r>  0.0000  0.0000  0.0053  0.0000  0.0000  0.0000  0.0000  0.0000  0.0000 </r>
       </set>
       <set comment="band 14">
        <r>  0.0072  0.0036  0.0000  0.0050  0.0107  0.0000  0.0199  0.0000  0.0046 </r>
        <r>  0.0020  0.0230  0.0000  0.0687  0.0000  0.0000  0.0000  0.0000  0.0000 </r>
       </set>
       <set comment="band 15">
        <r>  0.0000  0.0000  0.0200  0.0000  0.0000  0.0037  0.0000  0.0017  0.0000 </r>
        <r>  0.0000  0.0000  0.0042  0.0000  0.0000  0.0000  0.0000  0.0000  0.0000 </r>
       </set>
       <set comment="band 16">
        <r>  0.0044  0.0009  0.0000  0.0022  0.0001  0.0000  0.0018  0.0000  0.0001 </r>
        <r>  0.0028  0.0003  0.0000  0.0007  0.0000  0.0000  0.0000  0.0000  0.0000 </r>
       </set>
      </set>
      <set comment="kpoint 10">
       <set comment="band 1">
        <r>  0.2561  0.0642  0.0000  0.0259  0.0037  0.0000  0.0039  0.0000  0.0053 </r>
        <r>  0.3111  0.0144  0.0000  0.0052  0.0000  0.0000  0.0000  0.0000  0.0000 </r>
       </set>
       <set comment="band 2">
        <r>  0.3026  0.0739  0.0000  0.0602  0.0057  0.0000  0.0003  0.0000  0.0160 </r>
        <r>  0.1284  0.1083  0.0000  0.0520  0.0000  0.0000  0.0000  0.0000  0.0000 </r>
       </set>
       <set comment="band 3">
        <r>  0.0209  0.1389  0.0000  0.1891  0.0091  0.0000  0.0000  0.0000  0.0059 </r>
        <r>  0.0046  0.0961  0.0000  0.1919  0.0000  0.0000  0.0000  0.0000  0.0000 </r>
       </set>
       <set comment="band 4">
        <r>  0.0000  0.0000  0.1550  0.0000  0.0000  0.0182  0.0000  0.0079  0.0000 </r>
        <r>  0.0000  0.0000  0.2540  0.0000  0.0000  0.0000  0.0000  0.0000  0.0000 </r>
       </set>
       <set comment="band 5">
        <r>  0.0000  0.0000  0.2806  0.0000  0.0000  0.0158  0.0000  0.0123  0.0000 </r>
        <r>  0.0000  0.0000  0.1794  0.0000  0.0000  0.0000  0.0000  0.0000  0.0000 </r>
       </set>
       <set comment="band 6">
        <r>  0.0614  0.0045  0.0000  0.0096  0.0115  0.0000  0.0853  0.0000  0.0045 </r>
        <r>  0.0540  0.1139  0.0000  0.0845  0.0000  0.0000  0.0000  0.0000  0.0000 </r>
       </set>
       <set comment="band 7">
        <r>  0.0984  0.0029  0.0000  0.0021  0.0386  0.0000  0.0074  0.0000  0.0383 </r>
        <r>  0.0014  0.0420  0.0000  0.1044  0.0000  0.0000  0.0000  0.0000  0.0000 </r>
       </set>
       <set comment="band 8">
        <r>  0.0000  0.0000  0.0473  0.0000  0.0000  0.0046  0.0000  0.0031  0.0000 </r>
        <r>  0.0000  0.0000  0.0065  0.0000  0.0000  0.0000  0.0000  0.0000  0.0000 </r>
       </set>
       <set comment="band 9">
        <r>  0.0005  0.0103  0.0000  0.0114  0.0071  0.0000  0.0007  0.0000  0.0133 </r>
        <r>  0.0130  0.0078  0.0000  0.0104  0.0000  0.0000  0.0000  0.0000  0.0000 </r>
       </set>
       <set comment="band 10">
        <r>  0.0078  0.0581  0.0000  0.0658  0.0181  0.0000  0.0017  0.0000  0.0442 </r>
        <r>  0.0537  0.0314  0.0000  0.0200  0.0000  0.0000  0.0000  0.0000  0.0000 </r>
       </set>
       <set comment="band 11">
        <r>  0.0000  0.0000  0.0256  0.0000  0.0000  0.0174  0.0000  0.0156  0.0000 </r>
        <r>  0.0000  0.0000  0.0088  0.0000  0.0000  0.0000  0.0000  0.0000  0.0000 </r>
       </set>
       <set comment="band 12">
        <r>  0.0209  0.0279  0.0000  0.0341  0.0038  0.0000  0.0015  0.0000  0.0112 </r>
        <r>  0.0111  0.0048  0.0000  0.0016  0.0000  0.0000  0.0000  0.0000  0.0000 </r>
       </set>
       <set comment="band 13">
        <r>  0.0000  0.0000  0.0011  0.0000  0.0000  0.0384  0.0000  0.0419  0.0000 </r>
        <r>  0.0000  0.0000  0.0013  0.0000  0.0000  0.0000  0.0000  0.0000  0.0000 </r>
       </set>
       <set comment="band 14">
        <r>  0.0000  0.0000  0.0105  0.0000  0.0000  0.0072  0.0000  0.0129  0.0000 </r>
        <r>  0.0000  0.0000  0.0111  0.0000  0.0000  0.0000  0.0000  0.0000  0.0000 </r>
       </set>
       <set comment="band 15">
        <r>  0.0111  0.0179  0.0000  0.0350  0.0108  0.0000  0.0165  0.0000  0.0085 </r>
        <r>  0.0027  0.0104  0.0000  0.0060  0.0000  0.0000  0.0000  0.0000  0.0000 </r>
       </set>
       <set comment="band 16">
        <r>  0.0001  0.0118  0.0000  0.0354  0.0361  0.0000  0.0082  0.0000  0.0196 </r>
        <r>  0.0233  0.0758  0.0000  0.0301  0.0000  0.0000  0.0000  0.0000  0.0000 </r>
       </set>
      </set>
      <set comment="kpoint 11">
       <set comment="band 1">
        <r>  0.1385  0.0755  0.0000  0.0697  0.0110  0.0000  0.0016  0.0000  0.0081 </r>
        <r>  0.3785  0.0097  0.0000  0.0046  0.0000  0.0000  0.0000  0.0000  0.0000 </r>
       </set>
       <set comment="band 2">
        <r>  0.4380  0.0119  0.0000  0.0655  0.0019  0.0000  0.0016  0.0000  0.0049 </r>
        <r>  0.0686  0.0584  0.0000  0.0918  0.0000  0.0000  0.0000  0.0000  0.0000 </r>
       </set>
       <set comment="band 3">
        <r>  0.0236  0.1944  0.0000  0.1363  0.0028  0.0000  0.0000  0.0000  0.0038 </r>
        <r>  0.0082  0.1533  0.0000  0.1136  0.0000  0.0000  0.0000  0.0000  0.0000 </r>
       </set>
       <set comment="band 4">
        <r>  0.0000  0.0000  0.0811  0.0000  0.0000  0.0209  0.0000  0.0206  0.0000 </r>
        <r>  0.0000  0.0000  0.3347  0.0000  0.0000  0.0000  0.0000  0.0000  0.0000 </r>
       </set>
       <set comment="band 5">
        <r>  0.0000  0.0000  0.3867  0.0000  0.0000  0.0039  0.0000  0.0127  0.0000 </r>
        <r>  0.0000  0.0000  0.0744  0.0000  0.0000  0.0000  0.0000  0.0000  0.0000 </r>
       </set>
       <set comment="band 6">
        <r>  0.1063  0.0112  0.0000  0.0153  0.0346  0.0000  0.0875  0.0000  0.0077 </r>
        <r>  0.0368  0.1672  0.0000  0.1154  0.0000  0.0000  0.0000  0.0000  0.0000 </r>
       </set>
       <set comment="band 7">
        <r>  0.0000  0.0000  0.0244  0.0000  0.0000  0.0502  0.0000  0.0419  0.0000 </r>
        <r>  0.0000  0.0000  0.0195  0.0000  0.0000  0.0000  0.0000  0.0000  0.0000 </r>
       </set>
       <set comment="band 8">
        <r>  0.0199  0.0090  0.0000  0.0048  0.0299  0.0000  0.0124  0.0000  0.0263 </r>
        <r>  0.0140  0.0083  0.0000  0.0916  0.0000  0.0000  0.0000  0.0000  0.0000 </r>
       </set>
       <set comment="band 9">
        <r>  0.0060  0.0118  0.0000  0.0182  0.0164  0.0000  0.0100  0.0000  0.0178 </r>
        <r>  0.0076  0.0264  0.0000  0.0462  0.0000  0.0000  0.0000  0.0000  0.0000 </r>
       </set>
       <set comment="band 10">
        <r>  0.0000  0.0000  0.0070  0.0000  0.0000  0.0106  0.0000  0.0109  0.0000 </r>
        <r>  0.0000  0.0000  0.0033  0.0000  0.0000  0.0000  0.0000  0.0000  0.0000 </r>
       </set>
       <set comment="band 11">
        <r>  0.0097  0.0079  0.0000  0.0135  0.0078  0.0000  0.0038  0.0000  0.0071 </r>
        <r>  0.0023  0.0166  0.0000  0.0179  0.0000  0.0000  0.0000  0.0000  0.0000 </r>
       </set>
       <set comment="band 12">
        <r>  0.0000  0.0000  0.0092  0.0000  0.0000  0.0032  0.0000  0.0038  0.0000 </r>
        <r>  0.0000  0.0000  0.0121  0.0000  0.0000  0.0000  0.0000  0.0000  0.0000 </r>
       </set>
       <set comment="band 13">
        <r>  0.0096  0.0039  0.0000  0.0009  0.0013  0.0000  0.0012  0.0000  0.0142 </r>
        <r>  0.0150  0.0007  0.0000  0.0147  0.0000  0.0000  0.0000  0.0000  0.0000 </r>
       </set>
       <set comment="band 14">
        <r>  0.0204  0.0321  0.0000  0.0314  0.0024  0.0000  0.0016  0.0000  0.0318 </r>
        <r>  0.0164  0.0006  0.0000  0.0317  0.0000  0.0000  0.0000  0.0000  0.0000 </r>
       </set>
       <set comment="band 15">
        <r>  0.0000  0.0000  0.0073  0.0000  0.0000  0.0078  0.0000  0.0049  0.0000 </r>
        <r>  0.0000  0.0000  0.0095  0.0000  0.0000  0.0000  0.0000  0.0000  0.0000 </r>
       </set>
       <set comment="band 16">
        <r>  0.0030  0.0118  0.0000  0.0111  0.0018  0.0000  0.0008  0.0000  0.0129 </r>
        <r>  0.0162  0.0047  0.0000  0.0035  0.0000  0.0000  0.0000  0.0000  0.0000 </r>
       </set>
      </set>
      <set comment="kpoint 12">
       <set comment="band 1">
        <r>  0.0000  0.1011  0.0000  0.1011  0.0143  0.0000  0.0000  0.0000  0.0143 </r>
        <r>  0.4620  0.0000  0.0000  0.0000  0.0000  0.0000  0.0000  0.0000  0.0000 </r>
       </set>
       <set comment="band 2">
        <r>  0.6121  0.0000  0.0000  0.0000  0.0000  0.0000  0.0028  0.0000  0.0000 </r>
        <r>  0.0000  0.0785  0.0000  0.0785  0.0000  0.0000  0.0000  0.0000  0.0000 </r>
       </set>
       <set comment="band 3">
        <r>  0.0000  0.1733  0.0000  0.1733  0.0000  0.0000  0.0000  0.0000  0.0000 </r>
        <r>  0.0000  0.1271  0.0000  0.1271  0.0000  0.0000  0.0000  0.0000  0.0000 </r>
       </set>
       <set comment="band 4">
        <r>  0.0000  0.0000  0.0000  0.0000  0.0000  0.0276  0.0000  0.0276  0.0000 </r>
        <r>  0.0000  0.0000  0.4111  0.0000  0.0000  0.0000  0.0000  0.0000  0.0000 </r>
       </set>
       <set comment="band 5">
        <r>  0.0000  0.0000  0.4895  0.0000  0.0000  0.0000  0.0000  0.0000  0.0000 </r>
        <r>  0.0000  0.0000  0.0000  0.0000  0.0000  0.0000  0.0000  0.0000  0.0000 </r>
       </set>
       <set comment="band 6">
        <r>  0.0955  0.0000  0.0000  0.0000  0.0000  0.0000  0.1211  0.0000  0.0000 </r>
        <r>  0.0000  0.1853  0.0000  0.1853  0.0000  0.0000  0.0000  0.0000  0.0000 </r>
       </set>
       <set comment="band 7">
        <r>  0.0000  0.0000  0.0000  0.0000  0.0000  0.0589  0.0000  0.0589  0.0000 </r>
        <r>  0.0000  0.0000  0.0000  0.0000  0.0000  0.0000  0.0000  0.0000  0.0000 </r>
       </set>
       <set comment="band 8">
        <r>  0.0000  0.0018  0.0000  0.0018  0.0611  0.0000  0.0000  0.0000  0.0611 </r>
        <r>  0.0000  0.0982  0.0000  0.0982  0.0000  0.0000  0.0000  0.0000  0.0000 </r>
       </set>
       <set comment="band 9">
        <r>  0.0000  0.0012  0.0000  0.0012  0.0049  0.0000  0.0000  0.0000  0.0049 </r>
        <r>  0.0398  0.0000  0.0000  0.0000  0.0000  0.0000  0.0000  0.0000  0.0000 </r>
       </set>
       <set comment="band 10">
        <r>  0.0662  0.0000  0.0000  0.0000  0.0000  0.0000  0.0001  0.0000  0.0000 </r>
        <r>  0.0000  0.0216  0.0000  0.0216  0.0000  0.0000  0.0000  0.0000  0.0000 </r>
       </set>
       <set comment="band 11">
        <r>  0.0000  0.0000  0.0000  0.0000  0.0000  0.0001  0.0000  0.0001  0.0000 </r>
        <r>  0.0000  0.0000  0.0443  0.0000  0.0000  0.0000  0.0000  0.0000  0.0000 </r>
       </set>
       <set comment="band 12">
        <r>  0.0000  0.0000  0.0267  0.0000  0.0000  0.0000  0.0000  0.0000  0.0000 </r>
        <r>  0.0000  0.0000  0.0000  0.0000  0.0000  0.0000  0.0000  0.0000  0.0000 </r>
       </set>
       <set comment="band 13">
        <r>  0.0000  0.0000  0.0000  0.0000  0.0250  0.0000  0.0000  0.0000  0.0250 </r>
        <r>  0.0000  0.0176  0.0000  0.0176  0.0000  0.0000  0.0000  0.0000  0.0000 </r>
       </set>
       <set comment="band 14">
        <r>  0.0000  0.0032  0.0000  0.0032  0.0020  0.0000  0.0000  0.0000  0.0020 </r>
        <r>  0.0084  0.0000  0.0000  0.0000  0.0000  0.0000  0.0000  0.0000  0.0000 </r>
       </set>
       <set comment="band 15">
        <r>  0.0000  0.0000  0.0000  0.0000  0.0000  0.0079  0.0000  0.0079  0.0000 </r>
        <r>  0.0000  0.0000  0.0000  0.0000  0.0000  0.0000  0.0000  0.0000  0.0000 </r>
       </set>
       <set comment="band 16">
        <r>  0.0136  0.0000  0.0000  0.0000  0.0000  0.0000  0.0005  0.0000  0.0000 </r>
        <r>  0.0000  0.0034  0.0000  0.0034  0.0000  0.0000  0.0000  0.0000  0.0000 </r>
       </set>
      </set>
     </set>
    </set>
   </array>
  </projected>
 </calculation>
 <structure name="finalpos" >
  <crystal>
   <varray name="basis" >
    <v>       3.22000000       0.00000000       0.00000000 </v>
    <v>      -1.61000000       2.78860180       0.00000000 </v>
    <v>       0.00000000       0.00000000      20.00000000 </v>
   </varray>
   <i name="volume">    179.58595592 </i>
   <varray name="rec_basis" >
    <v>       0.31055901       0.17930133       0.00000000 </v>
    <v>       0.00000000       0.35860265       0.00000000 </v>
    <v>       0.00000000       0.00000000       0.05000000 </v>
   </varray>
  </crystal>
  <varray name="positions" >
   <v>       0.00000000       0.00000000       0.50000000 </v>
   <v>       0.33333334       0.66666669       0.50000000 </v>
  </varray>
  <varray name="selective"  type="logical" >
   <v type="logical" >  F  F  F </v>
   <v type="logical" >  T  T  F </v>
  </varray>
  <nose>
   <v>      -3.00000000       0.00000000       0.00010000       0.00010000 </v>
  </nose>
 </structure>
</modeling>
