    2    2    1    1
  0.5643294E+01  0.2517827E-09  0.2517827E-09  0.2517827E-09  0.5000000E-15
  1.000000000000000E-004
  CAR 
 r-GeO2 ENCUT convergence test           
      8    120      8
 
  0.0000000E+00  0.0000000E+00  0.0000000E+00  0.2962963E-03
    1      -12.159442   1.000000
    2        8.894186   1.000000
    3        8.894187   1.000000
    4        8.894188   1.000000
    5       14.999039   0.000000
    6       14.999042   0.000000
    7       14.999044   0.000000
    8       22.874529   0.000000
 
  0.6666667E-01 -0.3295382E-17  0.0000000E+00  0.2370370E-02
    1      -12.038261   1.000000
    2        8.126210   1.000000
    3        8.695704   1.000000
    4        8.695705   1.000000
    5       15.265485   0.000000
    6       15.265487   0.000000
    7       15.469939   0.000000
    8       22.984863   0.000000
 
  0.1333333E+00 -0.6590764E-17  0.0000000E+00  0.2370370E-02
    1      -11.675741   1.000000
    2        6.361651   1.000000
    3        8.211644   1.000000
    4        8.211646   1.000000
    5       15.921043   0.000000
    6       15.921044   0.000000
    7       16.370333   0.000000
    8       23.314156   0.000000
 
  0.2000000E+00 -0.2235735E-16  0.0000000E+00  0.2370370E-02
    1      -11.075518   1.000000
    2        4.227584   1.000000
    3        7.633754   1.000000
    4        7.633755   1.000000
    5       16.686653   0.000000
    6       16.686655   0.000000
    7       17.162061   0.000000
    8       23.835925   0.000000
 
  0.2666667E+00  0.1781357E-17  0.0000000E+00  0.2370370E-02
    1      -10.245542   1.000000
    2        2.011335   1.000000
    3        7.091691   1.000000
    4        7.091692   1.000000
    5       17.329767   0.000000
    6       17.329769   0.000000
    7       17.714975   0.000000
    8       24.468367   0.000000
 
  0.3333333E+00 -0.8131428E-17  0.0000000E+00  0.2370370E-02
    1       -9.202938   1.000000
    2       -0.142158   1.000000
    3        6.652163   1.000000
    4        6.652165   1.000000
    5       17.735534   0.000000
    6       17.735535   0.000000
    7       18.062656   0.000000
    8       25.080040   0.000000
 
  0.4000000E+00 -0.4471469E-16  0.0000000E+00  0.2370370E-02
    1       -7.995959   1.000000
    2       -2.118175   1.000000
    3        6.347402   1.000000
    4        6.347404   1.000000
    5       17.926008   0.000000
    6       17.926008   0.000000
    7       18.262815   0.000000
    8       25.531692   0.000000
 
  0.4666667E+00 -0.4454063E-16  0.0000000E+00  0.2370370E-02
    1       -6.849228   1.000000
    2       -3.657186   1.000000
    3        6.192201   1.000000
    4        6.192202   1.000000
    5       17.988231   0.000000
    6       17.988231   0.000000
    7       18.354302   0.000000
    8       25.760722   0.000000
 
  0.6666667E-01  0.6666667E-01  0.0000000E+00  0.1777778E-02
    1      -11.997872   1.000000
    2        8.324560   1.000000
    3        8.324561   1.000000
    4        8.501352   1.000000
    5       14.897812   0.000000
    6       15.716813   0.000000
    7       15.716814   0.000000
    8       22.986138   0.000000
 
  0.1333333E+00  0.6666667E-01  0.0000000E+00  0.7111111E-02
    1      -11.715851   1.000000
    2        6.949898   1.000000
    3        7.747509   1.000000
    4        8.300162   1.000000
    5       15.093531   0.000000
    6       16.489749   0.000000
    7       16.547195   0.000000
    8       23.134763   0.000000
 
  0.2000000E+00  0.6666667E-01  0.0000000E+00  0.7111111E-02
    1      -11.194807   1.000000
    2        4.959198   1.000000
    3        7.142725   1.000000
    4        7.853420   1.000000
    5       15.713279   0.000000
    6       17.324132   0.000000
    7       17.384161   0.000000
    8       23.420082   0.000000
 
  0.2666667E+00  0.6666667E-01  0.0000000E+00  0.7111111E-02
    1      -10.441120   1.000000
    2        2.789352   1.000000
    3        6.617548   1.000000
    4        7.283409   1.000000
    5       16.445891   0.000000
    6       18.001702   0.000000
    7       18.002282   0.000000
    8       23.836660   0.000000
 
  0.3333333E+00  0.6666667E-01  0.0000000E+00  0.7111111E-02
    1       -9.467975   1.000000
    2        0.626507   1.000000
    3        6.226332   1.000000
    4        6.723620   1.000000
    5       17.049157   0.000000
    6       18.399137   0.000000
    7       18.400189   0.000000
    8       24.392431   0.000000
 
  0.4000000E+00  0.6666667E-01  0.0000000E+00  0.7111111E-02
    1       -8.308267   1.000000
    2       -1.408287   1.000000
    3        5.994074   1.000000
    4        6.247360   1.000000
    5       17.446596   0.000000
    6       18.521540   0.000000
    7       18.633411   0.000000
    8       25.015280   0.000000
 
  0.4666667E+00  0.6666667E-01  0.0000000E+00  0.7111111E-02
    1       -7.087907   1.000000
    2       -3.142287   1.000000
    3        5.894130   1.000000
    4        5.929307   1.000000
    5       17.698502   0.000000
    6       18.459658   0.000000
    7       18.748806   0.000000
    8       25.512356   0.000000
 
 -0.4666667E+00  0.6666667E-01  0.0000000E+00  0.7111111E-02
    1       -6.544996   1.000000
    2       -3.814729   1.000000
    3        5.686778   1.000000
    4        6.030619   1.000000
    5       17.888312   0.000000
    6       18.302351   0.000000
    7       18.771227   0.000000
    8       25.689838   0.000000
 
 -0.4000000E+00  0.6666667E-01  0.0000000E+00  0.7111111E-02
    1       -7.482306   1.000000
    2       -2.617293   1.000000
    3        5.639117   1.000000
    4        6.289087   1.000000
    5       18.041008   0.000000
    6       18.079543   0.000000
    7       18.704769   0.000000
    8       25.489064   0.000000
 
 -0.3333333E+00  0.6666667E-01  0.0000000E+00  0.7111111E-02
    1       -8.712035   1.000000
    2       -0.748740   1.000000
    3        5.758170   1.000000
    4        6.688383   1.000000
    5       17.754158   0.000000
    6       18.105008   0.000000
    7       18.527758   0.000000
    8       24.987725   0.000000
 
 -0.2666667E+00  0.6666667E-01  0.0000000E+00  0.7111111E-02
    1       -9.815701   1.000000
    2        1.342737   1.000000
    3        6.043598   1.000000
    4        7.200663   1.000000
    5       17.260213   0.000000
    6       17.986604   0.000000
    7       18.179948   0.000000
    8       24.378041   0.000000
 
 -0.2000000E+00  0.6666667E-01  0.0000000E+00  0.7111111E-02
    1      -10.717759   1.000000
    2        3.522317   1.000000
    3        6.484874   1.000000
    4        7.776814   1.000000
    5       16.587158   0.000000
    6       17.545566   0.000000
    7       17.656592   0.000000
    8       23.835428   0.000000
 
 -0.1333333E+00  0.6666667E-01  0.0000000E+00  0.7111111E-02
    1      -11.394810   1.000000
    2        5.649401   1.000000
    3        7.057926   1.000000
    4        8.325653   1.000000
    5       15.859444   0.000000
    6       16.733016   0.000000
    7       17.012069   0.000000
    8       23.419160   0.000000
 
 -0.6666667E-01  0.6666667E-01  0.0000000E+00  0.3555556E-02
    1      -11.836627   1.000000
    2        7.393041   1.000000
    3        7.791059   1.000000
    4        8.690271   1.000000
    5       15.331154   0.000000
    6       15.881813   0.000000
    7       16.167763   0.000000
    8       23.132003   0.000000
 
  0.1333333E+00  0.1333333E+00  0.0000000E+00  0.1777778E-02
    1      -11.514709   1.000000
    2        7.117686   1.000000
    3        7.117686   1.000000
    4        7.419212   1.000000
    5       14.637471   0.000000
    6       17.360592   0.000000
    7       17.360592   0.000000
    8       22.895716   0.000000
 
  0.2000000E+00  0.1333333E+00  0.0000000E+00  0.7111111E-02
    1      -11.074213   1.000000
    2        5.568731   1.000000
    3        6.487554   1.000000
    4        7.153423   1.000000
    5       14.795466   0.000000
    6       18.275469   0.000000
    7       18.291490   0.000000
    8       22.639265   0.000000
 
  0.2666667E+00  0.1333333E+00  0.0000000E+00  0.7111111E-02
    1      -10.399512   1.000000
    2        3.574629   1.000000
    3        5.956563   1.000000
    4        6.683516   1.000000
    5       15.406389   0.000000
    6       18.996562   0.000000
    7       19.068298   0.000000
    8       22.508027   0.000000
 
  0.3333333E+00  0.1333333E+00  0.0000000E+00  0.7111111E-02
    1       -9.501172   1.000000
    2        1.487812   1.000000
    3        5.577005   1.000000
    4        6.076043   1.000000
    5       16.116733   0.000000
    6       19.472130   0.000000
    7       19.544922   0.000000
    8       22.728325   0.000000
 
  0.4000000E+00  0.1333333E+00  0.0000000E+00  0.7111111E-02
    1       -8.403146   1.000000
    2       -0.542142   1.000000
    3        5.373619   1.000000
    4        5.471608   1.000000
    5       16.670573   0.000000
    6       19.691427   0.000000
    7       19.754115   0.000000
    8       23.422336   0.000000
 
  0.4666667E+00  0.1333333E+00  0.0000000E+00  0.7111111E-02
    1       -7.182185   1.000000
    2       -2.369561   1.000000
    3        4.952163   1.000000
    4        5.354646   1.000000
    5       17.048061   0.000000
    6       19.581961   0.000000
    7       19.899285   0.000000
    8       24.414067   0.000000
 
 -0.4666667E+00  0.1333333E+00  0.0000000E+00  0.7111111E-02
    1       -6.257517   1.000000
    2       -3.539018   1.000000
    3        4.565105   1.000000
    4        5.516950   1.000000
    5       17.355893   0.000000
    6       19.315083   0.000000
    7       19.946637   0.000000
    8       25.233098   0.000000
 
 -0.4000000E+00  0.1333333E+00  0.0000000E+00  0.7111111E-02
    1       -6.797337   1.000000
    2       -2.869039   1.000000
    3        4.339456   1.000000
    4        5.847529   1.000000
    5       17.661999   0.000000
    6       18.944208   0.000000
    7       19.906951   0.000000
    8       25.333854   0.000000
 
 -0.3333333E+00  0.1333333E+00  0.0000000E+00  0.7111111E-02
    1       -8.006693   1.000000
    2       -1.161159   1.000000
    3        4.293720   1.000000
    4        6.322138   1.000000
    5       17.946346   0.000000
    6       18.459166   0.000000
    7       19.752522   0.000000
    8       24.736380   0.000000
 
 -0.2666667E+00  0.1333333E+00  0.0000000E+00  0.7111111E-02
    1       -9.158287   1.000000
    2        0.827215   1.000000
    3        4.440541   1.000000
    4        6.900335   1.000000
    5       17.822583   0.000000
    6       18.114728   0.000000
    7       19.385387   0.000000
    8       24.009231   0.000000
 
 -0.2000000E+00  0.1333333E+00  0.0000000E+00  0.7111111E-02
    1      -10.125924   1.000000
    2        2.893676   1.000000
    3        4.800204   1.000000
    4        7.513743   1.000000
    5       17.055712   0.000000
    6       18.050664   0.000000
    7       18.681851   0.000000
    8       23.580568   0.000000
 
 -0.1333333E+00  0.1333333E+00  0.0000000E+00  0.3555556E-02
    1      -10.876046   1.000000
    2        4.704465   1.000000
    3        5.553766   1.000000
    4        8.045891   1.000000
    5       16.312296   0.000000
    6       17.679698   0.000000
    7       17.708283   0.000000
    8       23.461987   0.000000
 
  0.2000000E+00  0.2000000E+00  0.0000000E+00  0.1777778E-02
    1      -10.714871   1.000000
    2        5.832321   1.000000
    3        5.832322   1.000000
    4        5.841343   1.000000
    5       14.318410   0.000000
    6       19.349968   0.000000
    7       19.349968   0.000000
    8       21.729973   0.000000
 
  0.2666667E+00  0.2000000E+00  0.0000000E+00  0.7111111E-02
    1      -10.120785   1.000000
    2        4.156620   1.000000
    3        5.278815   1.000000
    4        5.628351   1.000000
    5       14.491458   0.000000
    6       20.252515   0.000000
    7       20.282519   0.000000
    8       21.008884   0.000000
 
  0.3333333E+00  0.2000000E+00  0.0000000E+00  0.7111111E-02
    1       -9.300669   1.000000
    2        2.285023   1.000000
    3        4.882633   1.000000
    4        5.065596   1.000000
    5       15.120942   0.000000
    6       20.648710   0.000000
    7       20.917226   0.000000
    8       20.976996   0.000000
 
  0.4000000E+00  0.2000000E+00  0.0000000E+00  0.7111111E-02
    1       -8.273090   1.000000
    2        0.368676   1.000000
    3        4.372173   1.000000
    4        4.671470   1.000000
    5       15.790201   0.000000
    6       21.019128   0.000000
    7       21.177210   0.000000
    8       21.418095   0.000000
 
  0.4666667E+00  0.2000000E+00  0.0000000E+00  0.7111111E-02
    1       -7.088893   1.000000
    2       -1.449319   1.000000
    3        3.707639   1.000000
    4        4.655879   1.000000
    5       16.269311   0.000000
    6       21.102987   0.000000
    7       21.400770   0.000000
    8       22.379421   0.000000
 
 -0.4666667E+00  0.2000000E+00  0.0000000E+00  0.7111111E-02
    1       -5.977497   1.000000
    2       -2.881909   1.000000
    3        3.159840   1.000000
    4        4.833990   1.000000
    5       16.639228   0.000000
    6       20.786282   0.000000
    7       21.506448   0.000000
    8       23.842484   0.000000
 
 -0.4000000E+00  0.2000000E+00  0.0000000E+00  0.7111111E-02
    1       -5.993951   1.000000
    2       -2.846453   1.000000
    3        2.777849   1.000000
    4        5.192586   1.000000
    5       17.024593   0.000000
    6       20.295293   0.000000
    7       21.503020   0.000000
    8       24.891993   0.000000
 
 -0.3333333E+00  0.2000000E+00  0.0000000E+00  0.7111111E-02
    1       -7.107975   1.000000
    2       -1.375300   1.000000
    3        2.594628   1.000000
    4        5.704880   1.000000
    5       17.451909   0.000000
    6       19.641799   0.000000
    7       21.372568   0.000000
    8       24.559144   0.000000
 
 -0.2666667E+00  0.2000000E+00  0.0000000E+00  0.7111111E-02
    1       -8.286472   1.000000
    2        0.447133   1.000000
    3        2.655507   1.000000
    4        6.324034   1.000000
    5       17.856101   0.000000
    6       18.818100   0.000000
    7       20.928602   0.000000
    8       23.721592   0.000000
 
 -0.2000000E+00  0.2000000E+00  0.0000000E+00  0.3555556E-02
    1       -9.309254   1.000000
    2        2.095807   1.000000
    3        3.218007   1.000000
    4        6.970482   1.000000
    5       17.891116   0.000000
    6       18.103059   0.000000
    7       19.938839   0.000000
    8       23.408649   0.000000
 
  0.2666667E+00  0.2666667E+00  0.0000000E+00  0.1777778E-02
    1       -9.607891   1.000000
    2        3.933764   1.000000
    3        4.694383   1.000000
    4        4.694383   1.000000
    5       14.051180   0.000000
    6       19.761071   0.000000
    7       21.417626   0.000000
    8       21.417626   0.000000
 
  0.3333333E+00  0.2666667E+00  0.0000000E+00  0.7111111E-02
    1       -8.868088   1.000000
    2        2.579795   1.000000
    3        4.175330   1.000000
    4        4.265134   1.000000
    5       14.284202   0.000000
    6       19.015789   0.000000
    7       22.272128   0.000000
    8       22.276270   0.000000
 
  0.4000000E+00  0.2666667E+00  0.0000000E+00  0.7111111E-02
    1       -7.916438   1.000000
    2        0.999544   1.000000
    3        3.399727   1.000000
    4        4.023458   1.000000
    5       14.937982   0.000000
    6       18.978925   0.000000
    7       22.724087   0.000000
    8       22.815224   0.000000
 
  0.4666667E+00  0.2666667E+00  0.0000000E+00  0.7111111E-02
    1       -6.788961   1.000000
    2       -0.618161   1.000000
    3        2.550764   1.000000
    4        3.983226   1.000000
    5       15.524980   0.000000
    6       19.861005   0.000000
    7       22.758881   0.000000
    8       23.113111   0.000000
 
 -0.4666667E+00  0.2666667E+00  0.0000000E+00  0.7111111E-02
    1       -5.619050   1.000000
    2       -2.073056   1.000000
    3        1.806704   1.000000
    4        4.145112   1.000000
    5       15.934856   0.000000
    6       21.462577   0.000000
    7       22.444572   0.000000
    8       23.291329   0.000000
 
 -0.4000000E+00  0.2666667E+00  0.0000000E+00  0.7111111E-02
    1       -5.149143   1.000000
    2       -2.575580   1.000000
    3        1.256376   1.000000
    4        4.497796   1.000000
    5       16.341305   0.000000
    6       21.852282   0.000000
    7       22.886343   0.000000
    8       23.781763   0.000000
 
 -0.3333333E+00  0.2666667E+00  0.0000000E+00  0.7111111E-02
    1       -6.057021   1.000000
    2       -1.457900   1.000000
    3        0.970976   1.000000
    4        5.015553   1.000000
    5       16.828579   0.000000
    6       21.013067   0.000000
    7       23.050619   0.000000
    8       24.367558   0.000000
 
 -0.2666667E+00  0.2666667E+00  0.0000000E+00  0.3555556E-02
    1       -7.227339   1.000000
    2       -0.113539   1.000000
    3        1.238148   1.000000
    4        5.651388   1.000000
    5       17.370158   0.000000
    6       19.960574   0.000000
    7       22.452844   0.000000
    8       23.726366   0.000000
 
  0.3333333E+00  0.3333333E+00  0.0000000E+00  0.1777778E-02
    1       -8.209297   1.000000
    2        1.822868   1.000000
    3        3.795143   1.000000
    4        3.795144   1.000000
    5       13.929709   0.000000
    6       17.832051   0.000000
    7       23.386097   0.000000
    8       23.386098   0.000000
 
  0.4000000E+00  0.3333333E+00  0.0000000E+00  0.7111111E-02
    1       -7.336376   1.000000
    2        0.647450   1.000000
    3        3.183652   1.000000
    4        3.510717   1.000000
    5       14.255376   0.000000
    6       17.291452   0.000000
    7       24.085747   0.000000
    8       24.125059   0.000000
 
  0.4666667E+00  0.3333333E+00  0.0000000E+00  0.7111111E-02
    1       -6.276805   1.000000
    2       -0.567209   1.000000
    3        2.184266   1.000000
    4        3.429688   1.000000
    5       14.901349   0.000000
    6       17.637988   0.000000
    7       24.290644   0.000000
    8       24.527312   0.000000
 
 -0.4666667E+00  0.3333333E+00  0.0000000E+00  0.7111111E-02
    1       -5.114748   1.000000
    2       -1.724431   1.000000
    3        1.117384   1.000000
    4        3.555919   1.000000
    5       15.356681   0.000000
    6       19.053461   0.000000
    7       24.022544   0.000000
    8       24.697966   0.000000
 
 -0.4000000E+00  0.3333333E+00  0.0000000E+00  0.7111111E-02
    1       -4.329069   1.000000
    2       -2.412237   1.000000
    3        0.286063   1.000000
    4        3.880934   1.000000
    5       15.745884   0.000000
    6       21.084655   0.000000
    7       23.343377   0.000000
    8       24.723116   0.000000
 
 -0.3333333E+00  0.3333333E+00  0.0000000E+00  0.3555556E-02
    1       -4.958973   1.000000
    2       -1.816989   1.000000
    3        0.034286   1.000000
    4        4.381962   1.000000
    5       16.233455   0.000000
    6       22.308565   0.000000
    7       23.060170   0.000000
    8       24.523429   0.000000
 
  0.4000000E+00  0.4000000E+00  0.0000000E+00  0.1777778E-02
    1       -6.542601   1.000000
    2       -0.378664   1.000000
    3        3.178010   1.000000
    4        3.178010   1.000000
    5       14.030139   0.000000
    6       16.275586   0.000000
    7       25.043528   0.000000
    8       25.043529   0.000000
 
  0.4666667E+00  0.4000000E+00  0.0000000E+00  0.7111111E-02
    1       -5.556629   1.000000
    2       -1.469622   1.000000
    3        2.634527   1.000000
    4        3.047722   1.000000
    5       14.463687   0.000000
    6       15.992045   0.000000
    7       25.449375   0.000000
    8       25.533208   0.000000
 
 -0.4666667E+00  0.4000000E+00  0.0000000E+00  0.7111111E-02
    1       -4.435325   1.000000
    2       -2.458855   1.000000
    3        1.633515   1.000000
    4        3.127213   1.000000
    5       14.970120   0.000000
    6       16.865606   0.000000
    7       25.267356   0.000000
    8       25.658227   0.000000
 
 -0.4000000E+00  0.4000000E+00  0.0000000E+00  0.3555556E-02
    1       -3.659594   1.000000
    2       -2.969514   1.000000
    3        0.607331   1.000000
    4        3.411286   1.000000
    5       15.299866   0.000000
    6       18.780561   0.000000
    7       24.535487   0.000000
    8       25.438462   0.000000
 
  0.4666667E+00  0.4666667E+00  0.0000000E+00  0.1777778E-02
    1       -4.643889   1.000000
    2       -2.565156   1.000000
    3        2.864734   1.000000
    4        2.864735   1.000000
    5       14.416118   0.000000
    6       15.146732   0.000000
    7       26.043021   0.000000
    8       26.043023   0.000000
 
 -0.4666667E+00  0.4666667E+00  0.0000000E+00  0.3555556E-02
    1       -3.602793   1.000000
    2       -3.550227   1.000000
    3        2.456888   1.000000
    4        2.891810   1.000000
    5       14.798680   0.000000
    6       15.289644   0.000000
    7       25.977216   0.000000
    8       26.084466   0.000000
 
  0.2000000E+00  0.1333333E+00  0.6666667E-01  0.7111111E-02
    1      -11.354500   1.000000
    2        6.055974   1.000000
    3        6.634651   1.000000
    4        8.044652   1.000000
    5       15.242200   0.000000
    6       17.350264   0.000000
    7       17.386585   0.000000
    8       23.138764   0.000000
 
  0.2666667E+00  0.1333333E+00  0.6666667E-01  0.1422222E-01
    1      -10.756567   1.000000
    2        4.254851   1.000000
    3        5.884582   1.000000
    4        7.617326   1.000000
    5       15.838545   0.000000
    6       18.060913   0.000000
    7       18.269711   0.000000
    8       23.180490   0.000000
 
  0.3333333E+00  0.1333333E+00  0.6666667E-01  0.1422222E-01
    1       -9.930250   1.000000
    2        2.156641   1.000000
    3        5.407001   1.000000
    4        7.044036   1.000000
    5       16.583586   0.000000
    6       18.452680   0.000000
    7       19.012038   0.000000
    8       23.410938   0.000000
 
  0.4000000E+00  0.1333333E+00  0.6666667E-01  0.1422222E-01
    1       -8.893155   1.000000
    2        0.068360   1.000000
    3        5.101513   1.000000
    4        6.466971   1.000000
    5       17.213599   0.000000
    6       18.581318   0.000000
    7       19.471776   0.000000
    8       23.979010   0.000000
 
  0.4666667E+00  0.1333333E+00  0.6666667E-01  0.1422222E-01
    1       -7.694405   1.000000
    2       -1.867413   1.000000
    3        4.955518   1.000000
    4        5.985867   1.000000
    5       17.632095   0.000000
    6       18.526257   0.000000
    7       19.704107   0.000000
    8       24.765558   0.000000
 
 -0.4666667E+00  0.1333333E+00  0.6666667E-01  0.1422222E-01
    1       -6.559138   1.000000
    2       -3.380765   1.000000
    3        4.926511   1.000000
    4        5.691094   1.000000
    5       17.860285   0.000000
    6       18.415046   0.000000
    7       19.799190   0.000000
    8       25.370998   0.000000
 
  0.2666667E+00  0.2000000E+00  0.6666667E-01  0.7111111E-02
    1      -10.556912   1.000000
    2        4.646019   1.000000
    3        5.384668   1.000000
    4        6.759078   1.000000
    5       14.951402   0.000000
    6       19.053099   0.000000
    7       19.336485   0.000000
    8       22.095334   0.000000
 
  0.3333333E+00  0.2000000E+00  0.6666667E-01  0.1422222E-01
    1       -9.809283   1.000000
    2        2.922784   1.000000
    3        4.697922   1.000000
    4        6.278220   1.000000
    5       15.584881   0.000000
    6       19.527814   0.000000
    7       20.261498   0.000000
    8       21.800804   0.000000
 
  0.4000000E+00  0.2000000E+00  0.6666667E-01  0.1422222E-01
    1       -8.845479   1.000000
    2        0.952057   1.000000
    3        4.311860   1.000000
    4        5.696909   1.000000
    5       16.325122   0.000000
    6       19.699751   0.000000
    7       20.854160   0.000000
    8       22.098658   0.000000
 
  0.4666667E+00  0.2000000E+00  0.6666667E-01  0.1422222E-01
    1       -7.699809   1.000000
    2       -0.969113   1.000000
    3        4.056560   1.000000
    4        5.203195   1.000000
    5       16.888891   0.000000
    6       19.638976   0.000000
    7       21.168555   0.000000
    8       23.009294   0.000000
 
 -0.4666667E+00  0.2000000E+00  0.6666667E-01  0.1422222E-01
    1       -6.500245   1.000000
    2       -2.630755   1.000000
    3        3.826437   1.000000
    4        4.977751   1.000000
    5       17.271939   0.000000
    6       19.437105   0.000000
    7       21.311245   0.000000
    8       24.197537   0.000000
 
 -0.4000000E+00  0.2000000E+00  0.6666667E-01  0.1422222E-01
    1       -5.974949   1.000000
    2       -3.268900   1.000000
    3        3.592388   1.000000
    4        5.089149   1.000000
    5       17.598518   0.000000
    6       19.139992   0.000000
    7       21.310087   0.000000
    8       24.981100   0.000000
 
 -0.3333333E+00  0.2000000E+00  0.6666667E-01  0.1422222E-01
    1       -6.893338   1.000000
    2       -2.105909   1.000000
    3        3.444919   1.000000
    4        5.457173   1.000000
    5       17.922492   0.000000
    6       18.750102   0.000000
    7       21.186716   0.000000
    8       24.604936   0.000000
 
 -0.2666667E+00  0.2000000E+00  0.6666667E-01  0.1422222E-01
    1       -8.103131   1.000000
    2       -0.312613   1.000000
    3        3.458840   1.000000
    4        5.993050   1.000000
    5       17.987318   0.000000
    6       18.432192   0.000000
    7       20.909753   0.000000
    8       23.648654   0.000000
 
 -0.2000000E+00  0.2000000E+00  0.6666667E-01  0.1422222E-01
    1       -9.192802   1.000000
    2        1.633281   1.000000
    3        3.689586   1.000000
    4        6.613628   1.000000
    5       17.293910   0.000000
    6       18.544792   0.000000
    7       20.333554   0.000000
    8       22.975906   0.000000
 
 -0.1333333E+00  0.2000000E+00  0.6666667E-01  0.7111111E-02
    1      -10.085533   1.000000
    2        3.357036   1.000000
    3        4.361640   1.000000
    4        7.206504   1.000000
    5       16.456887   0.000000
    6       18.468308   0.000000
    7       19.372259   0.000000
    8       22.909012   0.000000
 
  0.3333333E+00  0.2666667E+00  0.6666667E-01  0.7111111E-02
    1       -9.453792   1.000000
    2        3.195608   1.000000
    3        4.273861   1.000000
    4        5.231789   1.000000
    5       14.696685   0.000000
    6       20.211974   0.000000
    7       20.901848   0.000000
    8       21.424558   0.000000
 
  0.4000000E+00  0.2666667E+00  0.6666667E-01  0.1422222E-01
    1       -8.567489   1.000000
    2        1.653362   1.000000
    3        3.612162   1.000000
    4        4.730076   1.000000
    5       15.381804   0.000000
    6       19.974021   0.000000
    7       21.194751   0.000000
    8       22.316189   0.000000
 
  0.4666667E+00  0.2666667E+00  0.6666667E-01  0.1422222E-01
    1       -7.487642   1.000000
    2       -0.086854   1.000000
    3        3.123783   1.000000
    4        4.295405   1.000000
    5       16.083989   0.000000
    6       20.485001   0.000000
    7       21.239456   0.000000
    8       22.869166   0.000000
 
 -0.4666667E+00  0.2666667E+00  0.6666667E-01  0.1422222E-01
    1       -6.293498   1.000000
    2       -1.737590   1.000000
    3        2.615752   1.000000
    4        4.170387   1.000000
    5       16.562413   0.000000
    6       20.960311   0.000000
    7       21.810584   0.000000
    8       23.175003   0.000000
 
 -0.4000000E+00  0.2666667E+00  0.6666667E-01  0.1422222E-01
    1       -5.407141   1.000000
    2       -2.799827   1.000000
    3        2.153264   1.000000
    4        4.350564   1.000000
    5       16.948035   0.000000
    6       20.645048   0.000000
    7       22.694931   0.000000
    8       23.835709   0.000000
 
 -0.3333333E+00  0.2666667E+00  0.6666667E-01  0.1422222E-01
    1       -5.945677   1.000000
    2       -2.132176   1.000000
    3        1.840216   1.000000
    4        4.758975   1.000000
    5       17.372402   0.000000
    6       20.120767   0.000000
    7       22.675638   0.000000
    8       24.409573   0.000000
 
 -0.2666667E+00  0.2666667E+00  0.6666667E-01  0.1422222E-01
    1       -7.120503   1.000000
    2       -0.559261   1.000000
    3        1.761634   1.000000
    4        5.330526   1.000000
    5       17.848724   0.000000
    6       19.341643   0.000000
    7       22.431039   0.000000
    8       23.556139   0.000000
 
 -0.2000000E+00  0.2666667E+00  0.6666667E-01  0.7111111E-02
    1       -8.244350   1.000000
    2        0.936819   1.000000
    3        2.201482   1.000000
    4        5.987919   1.000000
    5       18.292437   0.000000
    6       18.325302   0.000000
    7       21.677954   0.000000
    8       22.863976   0.000000
 
  0.4000000E+00  0.3333333E+00  0.6666667E-01  0.7111111E-02
    1       -8.061939   1.000000
    2        1.534955   1.000000
    3        3.399884   1.000000
    4        3.899815   1.000000
    5       14.578302   0.000000
    6       18.348847   0.000000
    7       22.747395   0.000000
    8       23.407076   0.000000
 
  0.4666667E+00  0.3333333E+00  0.6666667E-01  0.1422222E-01
    1       -7.055396   1.000000
    2        0.259514   1.000000
    3        2.604745   1.000000
    4        3.524917   1.000000
    5       15.316065   0.000000
    6       18.403714   0.000000
    7       22.886863   0.000000
    8       24.129776   0.000000
 
 -0.4666667E+00  0.3333333E+00  0.6666667E-01  0.1422222E-01
    1       -5.901979   1.000000
    2       -1.095535   1.000000
    3        1.720841   1.000000
    4        3.453869   1.000000
    5       15.920265   0.000000
    6       19.454491   0.000000
    7       22.766045   0.000000
    8       24.401881   0.000000
 