    2    2    1    1
  0.5643294E+01  0.2517827E-09  0.2517827E-09  0.2517827E-09  0.5000000E-15
  1.000000000000000E-004
  CAR 
 r-GeO2 ENCUT convergence test           
      8    120      8
 
  0.0000000E+00  0.0000000E+00  0.0000000E+00  0.2962963E-03
    1      -12.129760   1.000000
    2        9.022057   1.000000
    3        9.022058   1.000000
    4        9.022059   1.000000
    5       15.061644   0.000000
    6       15.061646   0.000000
    7       15.061648   0.000000
    8       23.039185   0.000000
 
  0.6666667E-01 -0.3295382E-17  0.0000000E+00  0.2370370E-02
    1      -12.008232   1.000000
    2        8.242223   1.000000
    3        8.820261   1.000000
    4        8.820263   1.000000
    5       15.331886   0.000000
    6       15.331888   0.000000
    7       15.543140   0.000000
    8       23.150127   0.000000
 
  0.1333333E+00 -0.6590764E-17  0.0000000E+00  0.2370370E-02
    1      -11.644639   1.000000
    2        6.458989   1.000000
    3        8.329802   1.000000
    4        8.329803   1.000000
    5       15.994467   0.000000
    6       15.994469   0.000000
    7       16.458105   0.000000
    8       23.480838   0.000000
 
  0.2000000E+00 -0.2235735E-16  0.0000000E+00  0.2370370E-02
    1      -11.042520   1.000000
    2        4.309344   1.000000
    3        7.746358   1.000000
    4        7.746359   1.000000
    5       16.763838   0.000000
    6       16.763839   0.000000
    7       17.259062   0.000000
    8       24.003714   0.000000
 
  0.2666667E+00  0.1781357E-17  0.0000000E+00  0.2370370E-02
    1      -10.209724   1.000000
    2        2.080406   1.000000
    3        7.200515   1.000000
    4        7.200517   1.000000
    5       17.403628   0.000000
    6       17.403629   0.000000
    7       17.816946   0.000000
    8       24.635356   0.000000
 
  0.3333333E+00 -0.8131428E-17  0.0000000E+00  0.2370370E-02
    1       -9.163047   1.000000
    2       -0.083977   1.000000
    3        6.758724   1.000000
    4        6.758726   1.000000
    5       17.799968   0.000000
    6       17.799969   0.000000
    7       18.167191   0.000000
    8       25.242504   0.000000
 
  0.4000000E+00 -0.4471469E-16  0.0000000E+00  0.2370370E-02
    1       -7.949916   1.000000
    2       -2.070421   1.000000
    3        6.452748   1.000000
    4        6.452749   1.000000
    5       17.979880   0.000000
    6       17.979881   0.000000
    7       18.368680   0.000000
    8       25.686579   0.000000
 
  0.4666667E+00 -0.4454063E-16  0.0000000E+00  0.2370370E-02
    1       -6.792902   1.000000
    2       -3.621800   1.000000
    3        6.297001   1.000000
    4        6.297002   1.000000
    5       18.035575   0.000000
    6       18.035576   0.000000
    7       18.460736   0.000000
    8       25.909368   0.000000
 
  0.6666667E-01  0.6666667E-01  0.0000000E+00  0.1777778E-02
    1      -11.967728   1.000000
    2        8.441339   1.000000
    3        8.441340   1.000000
    4        8.627808   1.000000
    5       14.959241   0.000000
    6       15.791727   0.000000
    7       15.791728   0.000000
    8       23.150371   0.000000
 
  0.1333333E+00  0.6666667E-01  0.0000000E+00  0.7111111E-02
    1      -11.684881   1.000000
    2        7.053374   1.000000
    3        7.856373   1.000000
    4        8.423401   1.000000
    5       15.157053   0.000000
    6       16.573814   0.000000
    7       16.633996   0.000000
    8       23.295787   0.000000
 
  0.2000000E+00  0.6666667E-01  0.0000000E+00  0.7111111E-02
    1      -11.162206   1.000000
    2        5.046653   1.000000
    3        7.245963   1.000000
    4        7.972123   1.000000
    5       15.781716   0.000000
    6       17.413239   0.000000
    7       17.480374   0.000000
    8       23.574009   0.000000
 
  0.2666667E+00  0.6666667E-01  0.0000000E+00  0.7111111E-02
    1      -10.406014   1.000000
    2        2.863304   1.000000
    3        6.717563   1.000000
    4        7.397031   1.000000
    5       16.515537   0.000000
    6       18.088785   0.000000
    7       18.103820   0.000000
    8       23.981630   0.000000
 
  0.3333333E+00  0.6666667E-01  0.0000000E+00  0.7111111E-02
    1       -9.429260   1.000000
    2        0.689018   1.000000
    3        6.325080   1.000000
    4        6.832823   1.000000
    5       17.113538   0.000000
    6       18.476872   0.000000
    7       18.504154   0.000000
    8       24.533375   0.000000
 
  0.4000000E+00  0.6666667E-01  0.0000000E+00  0.7111111E-02
    1       -8.264234   1.000000
    2       -1.356249   1.000000
    3        6.093044   1.000000
    4        6.352843   1.000000
    5       17.502383   0.000000
    6       18.586853   0.000000
    7       18.738405   0.000000
    8       25.158766   0.000000
 
  0.4666667E+00  0.6666667E-01  0.0000000E+00  0.7111111E-02
    1       -7.035173   1.000000
    2       -3.101798   1.000000
    3        5.996463   1.000000
    4        6.029617   1.000000
    5       17.748126   0.000000
    6       18.515068   0.000000
    7       18.854158   0.000000
    8       25.658991   0.000000
 
 -0.4666667E+00  0.6666667E-01  0.0000000E+00  0.7111111E-02
    1       -6.485142   1.000000
    2       -3.782077   1.000000
    3        5.786517   1.000000
    4        6.133116   1.000000
    5       17.937800   0.000000
    6       18.353673   0.000000
    7       18.876384   0.000000
    8       25.838538   0.000000
 
 -0.4000000E+00  0.6666667E-01  0.0000000E+00  0.7111111E-02
    1       -7.433019   1.000000
    2       -2.572651   1.000000
    3        5.736895   1.000000
    4        6.394481   1.000000
    5       18.097167   0.000000
    6       18.133273   0.000000
    7       18.809085   0.000000
    8       25.640137   0.000000
 
 -0.3333333E+00  0.6666667E-01  0.0000000E+00  0.7111111E-02
    1       -8.670023   1.000000
    2       -0.693237   1.000000
    3        5.854820   1.000000
    4        6.797283   1.000000
    5       17.815019   0.000000
    6       18.173095   0.000000
    7       18.630863   0.000000
    8       25.140516   0.000000
 
 -0.2666667E+00  0.6666667E-01  0.0000000E+00  0.7111111E-02
    1       -9.778333   1.000000
    2        1.408924   1.000000
    3        6.140243   1.000000
    4        7.313802   1.000000
    5       17.328430   0.000000
    6       18.065836   0.000000
    7       18.283018   0.000000
    8       24.532300   0.000000
 
 -0.2000000E+00  0.6666667E-01  0.0000000E+00  0.7111111E-02
    1      -10.683589   1.000000
    2        3.600663   1.000000
    3        6.582976   1.000000
    4        7.895008   1.000000
    5       16.657964   0.000000
    6       17.635033   0.000000
    7       17.753811   0.000000
    8       23.993362   0.000000
 
 -0.1333333E+00  0.6666667E-01  0.0000000E+00  0.7111111E-02
    1      -11.362833   1.000000
    2        5.742523   1.000000
    3        7.159316   1.000000
    4        8.449253   1.000000
    5       15.927323   0.000000
    6       16.823406   0.000000
    7       17.101225   0.000000
    8       23.581640   0.000000
 
 -0.6666667E-01  0.6666667E-01  0.0000000E+00  0.3555556E-02
    1      -11.806006   1.000000
    2        7.502931   1.000000
    3        7.899005   1.000000
    4        8.817347   1.000000
    5       15.395368   0.000000
    6       15.962758   0.000000
    7       16.247910   0.000000
    8       23.296922   0.000000
 
  0.1333333E+00  0.1333333E+00  0.0000000E+00  0.1777778E-02
    1      -11.483136   1.000000
    2        7.218063   1.000000
    3        7.218064   1.000000
    4        7.541562   1.000000
    5       14.695713   0.000000
    6       17.455290   0.000000
    7       17.455290   0.000000
    8       23.039608   0.000000
 
  0.2000000E+00  0.1333333E+00  0.0000000E+00  0.7111111E-02
    1      -11.041247   1.000000
    2        5.663020   1.000000
    3        6.582004   1.000000
    4        7.267818   1.000000
    5       14.854826   0.000000
    6       18.378681   0.000000
    7       18.393338   0.000000
    8       22.756732   0.000000
 
  0.2666667E+00  0.1333333E+00  0.0000000E+00  0.7111111E-02
    1      -10.364313   1.000000
    2        3.655683   1.000000
    3        6.047612   1.000000
    4        6.793265   1.000000
    5       15.468927   0.000000
    6       19.105239   0.000000
    7       19.170962   0.000000
    8       22.601980   0.000000
 
  0.3333333E+00  0.1333333E+00  0.0000000E+00  0.7111111E-02
    1       -9.462731   1.000000
    2        1.556755   1.000000
    3        5.666743   1.000000
    4        6.180300   1.000000
    5       16.177792   0.000000
    6       19.583420   0.000000
    7       19.640638   0.000000
    8       22.815120   0.000000
 
  0.4000000E+00  0.1333333E+00  0.0000000E+00  0.7111111E-02
    1       -8.360012   1.000000
    2       -0.484129   1.000000
    3        5.463772   1.000000
    4        5.570502   1.000000
    5       16.724679   0.000000
    6       19.775175   0.000000
    7       19.866003   0.000000
    8       23.520649   0.000000
 
  0.4666667E+00  0.1333333E+00  0.0000000E+00  0.7111111E-02
    1       -7.131767   1.000000
    2       -2.322637   1.000000
    3        5.046194   1.000000
    4        5.446669   1.000000
    5       17.095755   0.000000
    6       19.654290   0.000000
    7       20.010891   0.000000
    8       24.533989   0.000000
 
 -0.4666667E+00  0.1333333E+00  0.0000000E+00  0.7111111E-02
    1       -6.196687   1.000000
    2       -3.504010   1.000000
    3        4.654919   1.000000
    4        5.612102   1.000000
    5       17.402365   0.000000
    6       19.380640   0.000000
    7       20.057477   0.000000
    8       25.374526   0.000000
 
 -0.4000000E+00  0.1333333E+00  0.0000000E+00  0.7111111E-02
    1       -6.743467   1.000000
    2       -2.826328   1.000000
    3        4.425815   1.000000
    4        5.946906   1.000000
    5       17.713383   0.000000
    6       19.008957   0.000000
    7       20.016809   0.000000
    8       25.484621   0.000000
 
 -0.3333333E+00  0.1333333E+00  0.0000000E+00  0.7111111E-02
    1       -7.961470   1.000000
    2       -1.106761   1.000000
    3        4.377507   1.000000
    4        6.426707   1.000000
    5       18.008106   0.000000
    6       18.527583   0.000000
    7       19.861498   0.000000
    8       24.883024   0.000000
 
 -0.2666667E+00  0.1333333E+00  0.0000000E+00  0.7111111E-02
    1       -9.118432   1.000000
    2        0.892634   1.000000
    3        4.522684   1.000000
    4        7.010886   1.000000
    5       17.895102   0.000000
    6       18.189701   0.000000
    7       19.494038   0.000000
    8       24.149572   0.000000
 
 -0.2000000E+00  0.1333333E+00  0.0000000E+00  0.7111111E-02
    1      -10.089727   1.000000
    2        2.971815   1.000000
    3        4.881393   1.000000
    4        7.630651   1.000000
    5       17.128379   0.000000
    6       18.136517   0.000000
    7       18.789281   0.000000
    8       23.721539   0.000000
 
 -0.1333333E+00  0.1333333E+00  0.0000000E+00  0.3555556E-02
    1      -10.842416   1.000000
    2        4.796643   1.000000
    3        5.636372   1.000000
    4        8.168240   1.000000
    5       16.381627   0.000000
    6       17.770113   0.000000
    7       17.810056   0.000000
    8       23.613074   0.000000
 
  0.2000000E+00  0.2000000E+00  0.0000000E+00  0.1777778E-02
    1      -10.680771   1.000000
    2        5.920350   1.000000
    3        5.920350   1.000000
    4        5.956655   1.000000
    5       14.372123   0.000000
    6       19.462131   0.000000
    7       19.462131   0.000000
    8       21.808971   0.000000
 
  0.2666667E+00  0.2000000E+00  0.0000000E+00  0.7111111E-02
    1      -10.084703   1.000000
    2        4.247868   1.000000
    3        5.362884   1.000000
    4        5.727386   1.000000
    5       14.545550   0.000000
    6       20.371509   0.000000
    7       20.399648   0.000000
    8       21.062459   0.000000
 
  0.3333333E+00  0.2000000E+00  0.0000000E+00  0.7111111E-02
    1       -9.261639   1.000000
    2        2.363733   1.000000
    3        4.964845   1.000000
    4        5.159795   1.000000
    5       15.176281   0.000000
    6       20.721155   0.000000
    7       21.031737   0.000000
    8       21.072873   0.000000
 
  0.4000000E+00  0.2000000E+00  0.0000000E+00  0.7111111E-02
    1       -8.229844   1.000000
    2        0.435588   1.000000
    3        4.460485   1.000000
    4        4.753636   1.000000
    5       15.840964   0.000000
    6       21.113189   0.000000
    7       21.282483   0.000000
    8       21.504366   0.000000
 
  0.4666667E+00  0.2000000E+00  0.0000000E+00  0.7111111E-02
    1       -7.039392   1.000000
    2       -1.393773   1.000000
    3        3.790366   1.000000
    4        4.739599   1.000000
    5       16.312874   0.000000
    6       21.197113   0.000000
    7       21.527054   0.000000
    8       22.456445   0.000000
 
 -0.4666667E+00  0.2000000E+00  0.0000000E+00  0.7111111E-02
    1       -5.917978   1.000000
    2       -2.838991   1.000000
    3        3.237691   1.000000
    4        4.920736   1.000000
    5       16.679906   0.000000
    6       20.872343   0.000000
    7       21.630005   0.000000
    8       23.950881   0.000000
 
 -0.4000000E+00  0.2000000E+00  0.0000000E+00  0.7111111E-02
    1       -5.934417   1.000000
    2       -2.803597   1.000000
    3        2.851579   1.000000
    4        5.283742   1.000000
    5       17.067879   0.000000
    6       20.378294   0.000000
    7       21.624437   0.000000
    8       25.034507   0.000000
 
 -0.3333333E+00  0.2000000E+00  0.0000000E+00  0.7111111E-02
    1       -7.058277   1.000000
    2       -1.319931   1.000000
    3        2.664868   1.000000
    4        5.801733   1.000000
    5       17.502773   0.000000
    6       19.725066   0.000000
    7       21.492230   0.000000
    8       24.705888   0.000000
 
 -0.2666667E+00  0.2000000E+00  0.0000000E+00  0.7111111E-02
    1       -8.243050   1.000000
    2        0.515063   1.000000
    3        2.722204   1.000000
    4        6.427696   1.000000
    5       17.918662   0.000000
    6       18.901056   0.000000
    7       21.046748   0.000000
    8       23.857799   0.000000
 
 -0.2000000E+00  0.2000000E+00  0.0000000E+00  0.3555556E-02
    1       -9.270097   1.000000
    2        2.176805   1.000000
    3        3.282490   1.000000
    4        7.081416   1.000000
    5       17.969864   0.000000
    6       18.178974   0.000000
    7       20.053571   0.000000
    8       23.541066   0.000000
 
  0.2666667E+00  0.2666667E+00  0.0000000E+00  0.1777778E-02
    1       -9.570072   1.000000
    2        4.039170   1.000000
    3        4.773775   1.000000
    4        4.773775   1.000000
    5       14.099487   0.000000
    6       19.793399   0.000000
    7       21.545184   0.000000
    8       21.545185   0.000000
 
  0.3333333E+00  0.2666667E+00  0.0000000E+00  0.7111111E-02
    1       -8.827591   1.000000
    2        2.672777   1.000000
    3        4.254247   1.000000
    4        4.341971   1.000000
    5       14.332229   0.000000
    6       19.041476   0.000000
    7       22.403316   0.000000
    8       22.408886   0.000000
 
  0.4000000E+00  0.2666667E+00  0.0000000E+00  0.7111111E-02
    1       -7.872127   1.000000
    2        1.080423   1.000000
    3        3.473448   1.000000
    4        4.099571   1.000000
    5       14.985034   0.000000
    6       19.012793   0.000000
    7       22.850959   0.000000
    8       22.948828   0.000000
 
  0.4666667E+00  0.2666667E+00  0.0000000E+00  0.7111111E-02
    1       -6.739128   1.000000
    2       -0.549305   1.000000
    3        2.618827   1.000000
    4        4.060256   1.000000
    5       15.565133   0.000000
    6       19.917309   0.000000
    7       22.877005   0.000000
    8       23.245171   0.000000
 
 -0.4666667E+00  0.2666667E+00  0.0000000E+00  0.7111111E-02
    1       -5.560607   1.000000
    2       -2.016999   1.000000
    3        1.869994   1.000000
    4        4.224617   1.000000
    5       15.970443   0.000000
    6       21.549007   0.000000
    7       22.554456   0.000000
    8       23.418344   0.000000
 
 -0.4000000E+00  0.2666667E+00  0.0000000E+00  0.7111111E-02
    1       -5.084152   1.000000
    2       -2.527163   1.000000
    3        1.315422   1.000000
    4        4.581318   1.000000
    5       16.377847   0.000000
    6       21.956825   0.000000
    7       23.020200   0.000000
    8       23.893713   0.000000
 
 -0.3333333E+00  0.2666667E+00  0.0000000E+00  0.7111111E-02
    1       -6.001318   1.000000
    2       -1.397186   1.000000
    3        1.025256   1.000000
    4        5.104583   1.000000
    5       16.870284   0.000000
    6       21.113414   0.000000
    7       23.186109   0.000000
    8       24.513479   0.000000
 
 -0.2666667E+00  0.2666667E+00  0.0000000E+00  0.3555556E-02
    1       -7.178900   1.000000
    2       -0.040091   1.000000
    3        1.288781   1.000000
    4        5.747308   1.000000
    5       17.420704   0.000000
    6       20.054126   0.000000
    7       22.580980   0.000000
    8       23.865005   0.000000
 
  0.3333333E+00  0.3333333E+00  0.0000000E+00  0.1777778E-02
    1       -8.166414   1.000000
    2        1.916190   1.000000
    3        3.868679   1.000000
    4        3.868679   1.000000
    5       13.971963   0.000000
    6       17.849267   0.000000
    7       23.528433   0.000000
    8       23.528434   0.000000
 
  0.4000000E+00  0.3333333E+00  0.0000000E+00  0.7111111E-02
    1       -7.289980   1.000000
    2        0.734073   1.000000
    3        3.251416   1.000000
    4        3.582793   1.000000
    5       14.296676   0.000000
    6       17.310915   0.000000
    7       24.231108   0.000000
    8       24.272309   0.000000
 
  0.4666667E+00  0.3333333E+00  0.0000000E+00  0.7111111E-02
    1       -6.225455   1.000000
    2       -0.487038   1.000000
    3        2.241626   1.000000
    4        3.501959   1.000000
    5       14.938868   0.000000
    6       17.673166   0.000000
    7       24.431768   0.000000
    8       24.675863   0.000000
 
 -0.4666667E+00  0.3333333E+00  0.0000000E+00  0.7111111E-02
    1       -5.056061   1.000000
    2       -1.651997   1.000000
    3        1.165085   1.000000
    4        3.629984   1.000000
    5       15.388280   0.000000
    6       19.112467   0.000000
    7       24.156331   0.000000
    8       24.846490   0.000000
 
 -0.4000000E+00  0.3333333E+00  0.0000000E+00  0.7111111E-02
    1       -4.260438   1.000000
    2       -2.349151   1.000000
    3        0.326707   1.000000
    4        3.958383   1.000000
    5       15.777375   0.000000
    6       21.168616   0.000000
    7       23.468929   0.000000
    8       24.872134   0.000000
 
 -0.3333333E+00  0.3333333E+00  0.0000000E+00  0.3555556E-02
    1       -4.895450   1.000000
    2       -1.748752   1.000000
    3        0.072203   1.000000
    4        4.464405   1.000000
    5       16.268685   0.000000
    6       22.423628   0.000000
    7       23.180593   0.000000
    8       24.673596   0.000000
 
  0.4000000E+00  0.4000000E+00  0.0000000E+00  0.1777778E-02
    1       -6.493007   1.000000
    2       -0.298121   1.000000
    3        3.247887   1.000000
    4        3.247887   1.000000
    5       14.065741   0.000000
    6       16.292241   0.000000
    7       25.200179   0.000000
    8       25.200180   0.000000
 
  0.4666667E+00  0.4000000E+00  0.0000000E+00  0.7111111E-02
    1       -5.502575   1.000000
    2       -1.394655   1.000000
    3        2.698498   1.000000
    4        3.117071   1.000000
    5       14.497528   0.000000
    6       16.015074   0.000000
    7       25.608338   0.000000
    8       25.694292   0.000000
 
 -0.4666667E+00  0.4000000E+00  0.0000000E+00  0.7111111E-02
    1       -4.374868   1.000000
    2       -2.388173   1.000000
    3        1.685858   1.000000
    4        3.197636   1.000000
    5       14.998378   0.000000
    6       16.907758   0.000000
    7       25.420919   0.000000
    8       25.820362   0.000000
 
 -0.4000000E+00  0.4000000E+00  0.0000000E+00  0.3555556E-02
    1       -3.588736   1.000000
    2       -2.904610   1.000000
    3        0.647653   1.000000
    4        3.484391   1.000000
    5       15.328047   0.000000
    6       18.841672   0.000000
    7       24.677822   0.000000
    8       25.598770   0.000000
 
  0.4666667E+00  0.4666667E+00  0.0000000E+00  0.1777778E-02
    1       -4.585829   1.000000
    2       -2.496685   1.000000
    3        2.932830   1.000000
    4        2.932831   1.000000
    5       14.444749   0.000000
    6       15.168559   0.000000
    7       26.210483   0.000000
    8       26.210484   0.000000
 
 -0.4666667E+00  0.4666667E+00  0.0000000E+00  0.3555556E-02
    1       -3.538772   1.000000
    2       -3.486990   1.000000
    3        2.519867   1.000000
    4        2.960262   1.000000
    5       14.824138   0.000000
    6       15.320310   0.000000
    7       26.142656   0.000000
    8       26.252386   0.000000
 
  0.2000000E+00  0.1333333E+00  0.6666667E-01  0.7111111E-02
    1      -11.322404   1.000000
    2        6.155847   1.000000
    3        6.728507   1.000000
    4        8.166137   1.000000
    5       15.306217   0.000000
    6       17.445665   0.000000
    7       17.479277   0.000000
    8       23.287349   0.000000
 
  0.2666667E+00  0.1333333E+00  0.6666667E-01  0.1422222E-01
    1      -10.722544   1.000000
    2        4.340196   1.000000
    3        5.974622   1.000000
    4        7.734742   1.000000
    5       15.906114   0.000000
    6       18.156126   0.000000
    7       18.372164   0.000000
    8       23.311344   0.000000
 
  0.3333333E+00  0.1333333E+00  0.6666667E-01  0.1422222E-01
    1       -9.893367   1.000000
    2        2.228658   1.000000
    3        5.496027   1.000000
    4        7.155728   1.000000
    5       16.651929   0.000000
    6       18.544329   0.000000
    7       19.116410   0.000000
    8       23.530504   0.000000
 
  0.4000000E+00  0.1333333E+00  0.6666667E-01  0.1422222E-01
    1       -8.852148   1.000000
    2        0.129045   1.000000
    3        5.190882   1.000000
    4        6.572957   1.000000
    5       17.276662   0.000000
    6       18.664233   0.000000
    7       19.575043   0.000000
    8       24.101358   0.000000
 
  0.4666667E+00  0.1333333E+00  0.6666667E-01  0.1422222E-01
    1       -7.647204   1.000000
    2       -1.817452   1.000000
    3        5.046453   1.000000
    4        6.086737   1.000000
    5       17.686483   0.000000
    6       18.600357   0.000000
    7       19.806260   0.000000
    8       24.899954   0.000000
 
 -0.4666667E+00  0.1333333E+00  0.6666667E-01  0.1422222E-01
    1       -6.501773   1.000000
    2       -3.343174   1.000000
    3        5.019447   1.000000
    4        5.788209   1.000000
    5       17.907056   0.000000
    6       18.485705   0.000000
    7       19.900753   0.000000
    8       25.516322   0.000000
 
  0.2666667E+00  0.2000000E+00  0.6666667E-01  0.7111111E-02
    1      -10.522273   1.000000
    2        4.739696   1.000000
    3        5.467454   1.000000
    4        6.868055   1.000000
    5       15.011239   0.000000
    6       19.159379   0.000000
    7       19.448073   0.000000
    8       22.181470   0.000000
 
  0.3333333E+00  0.2000000E+00  0.6666667E-01  0.1422222E-01
    1       -9.772045   1.000000
    2        3.003855   1.000000
    3        4.779051   1.000000
    4        6.381564   1.000000
    5       15.647422   0.000000
    6       19.631672   0.000000
    7       20.378009   0.000000
    8       21.870694   0.000000
 
  0.4000000E+00  0.2000000E+00  0.6666667E-01  0.1422222E-01
    1       -8.804533   1.000000
    2        1.020552   1.000000
    3        4.393980   1.000000
    4        5.793427   1.000000
    5       16.385860   0.000000
    6       19.794961   0.000000
    7       20.970735   0.000000
    8       22.173314   0.000000
 
  0.4666667E+00  0.2000000E+00  0.6666667E-01  0.1422222E-01
    1       -7.653462   1.000000
    2       -0.911906   1.000000
    3        4.140479   1.000000
    4        5.293309   1.000000
    5       16.942565   0.000000
    6       19.724802   0.000000
    7       21.285575   0.000000
    8       23.100913   0.000000
 
 -0.4666667E+00  0.2000000E+00  0.6666667E-01  0.1422222E-01
    1       -6.445256   1.000000
    2       -2.585462   1.000000
    3        3.910890   1.000000
    4        5.064653   1.000000
    5       17.320017   0.000000
    6       19.515862   0.000000
    7       21.427640   0.000000
    8       24.314734   0.000000
 
 -0.4000000E+00  0.2000000E+00  0.6666667E-01  0.1422222E-01
    1       -5.913141   1.000000
    2       -3.231262   1.000000
    3        3.674422   1.000000
    4        5.177896   1.000000
    5       17.646177   0.000000
    6       19.215102   0.000000
    7       21.426294   0.000000
    8       25.122241   0.000000
 
 -0.3333333E+00  0.2000000E+00  0.6666667E-01  0.1422222E-01
    1       -6.841701   1.000000
    2       -2.056486   1.000000
    3        3.523744   1.000000
    4        5.550640   1.000000
    5       17.974551   0.000000
    6       18.826170   0.000000
    7       21.303142   0.000000
    8       24.739946   0.000000
 
 -0.2666667E+00  0.2000000E+00  0.6666667E-01  0.1422222E-01
    1       -8.058776   1.000000
    2       -0.251635   1.000000
    3        3.534912   1.000000
    4        6.092666   1.000000
    5       18.052716   0.000000
    6       18.507804   0.000000
    7       21.026032   0.000000
    8       23.766452   0.000000
 
 -0.2000000E+00  0.2000000E+00  0.6666667E-01  0.1422222E-01
    1       -9.153189   1.000000
    2        1.706690   1.000000
    3        3.763180   1.000000
    4        6.720180   1.000000
    5       17.367433   0.000000
    6       18.626152   0.000000
    7       20.449010   0.000000
    8       23.083080   0.000000
 
 -0.1333333E+00  0.2000000E+00  0.6666667E-01  0.7111111E-02
    1      -10.049224   1.000000
    2        3.443584   1.000000
    3        4.434747   1.000000
    4        7.319731   1.000000
    5       16.527847   0.000000
    6       18.559623   0.000000
    7       19.483448   0.000000
    8       23.020047   0.000000
 
  0.3333333E+00  0.2666667E+00  0.6666667E-01  0.7111111E-02
    1       -9.415378   1.000000
    2        3.287760   1.000000
    3        4.348664   1.000000
    4        5.323044   1.000000
    5       14.750959   0.000000
    6       20.251869   0.000000
    7       21.019269   0.000000
    8       21.551581   0.000000
 
  0.4000000E+00  0.2666667E+00  0.6666667E-01  0.1422222E-01
    1       -8.525689   1.000000
    2        1.734468   1.000000
    3        3.686083   1.000000
    4        4.814554   1.000000
    5       15.437598   0.000000
    6       20.013003   0.000000
    7       21.309711   0.000000
    8       22.446765   0.000000
 
  0.4666667E+00  0.2666667E+00  0.6666667E-01  0.1422222E-01
    1       -7.441030   1.000000
    2       -0.018425   1.000000
    3        3.198941   1.000000
    4        4.373850   1.000000
    5       16.135100   0.000000
    6       20.539435   0.000000
    7       21.350088   0.000000
    8       22.997479   0.000000
 
 -0.4666667E+00  0.2666667E+00  0.6666667E-01  0.1422222E-01
    1       -6.239564   1.000000
    2       -1.681459   1.000000
    3        2.688906   1.000000
    4        4.247722   1.000000
    5       16.607085   0.000000
    6       21.049315   0.000000
    7       21.911427   0.000000
    8       23.295275   0.000000
 
 -0.4000000E+00  0.2666667E+00  0.6666667E-01  0.1422222E-01
    1       -5.343230   1.000000
    2       -2.755702   1.000000
    3        2.222542   1.000000
    4        4.430713   1.000000
    5       16.991329   0.000000
    6       20.733935   0.000000
    7       22.827835   0.000000
    8       23.949603   0.000000
 
 -0.3333333E+00  0.2666667E+00  0.6666667E-01  0.1422222E-01
    1       -5.888197   1.000000
    2       -2.080599   1.000000
    3        1.905447   1.000000
    4        4.844033   1.000000
    5       17.419433   0.000000
    6       20.207821   0.000000
    7       22.807475   0.000000
    8       24.547692   0.000000
 
 -0.2666667E+00  0.2666667E+00  0.6666667E-01  0.1422222E-01
    1       -7.071478   1.000000
    2       -0.494299   1.000000
    3        1.822366   1.000000
    4        5.421996   1.000000
    5       17.903919   0.000000
    6       19.427505   0.000000
    7       22.558310   0.000000
    8       23.679852   0.000000
 
 -0.2000000E+00  0.2666667E+00  0.6666667E-01  0.7111111E-02
    1       -8.200858   1.000000
    2        1.014464   1.000000
    3        2.259134   1.000000
    4        6.086909   1.000000
    5       18.359814   0.000000
    6       18.406544   0.000000
    7       21.802268   0.000000
    8       22.972895   0.000000
 
  0.4000000E+00  0.3333333E+00  0.6666667E-01  0.7111111E-02
    1       -8.018369   1.000000
    2        1.625290   1.000000
    3        3.469144   1.000000
    4        3.974142   1.000000
    5       14.626332   0.000000
    6       18.372272   0.000000
    7       22.878142   0.000000
    8       23.549224   0.000000
 
  0.4666667E+00  0.3333333E+00  0.6666667E-01  0.1422222E-01
    1       -7.007446   1.000000
    2        0.342244   1.000000
    3        2.668188   1.000000
    4        3.595117   1.000000
    5       15.364031   0.000000
    6       18.437109   0.000000
    7       23.012392   0.000000
    8       24.276276   0.000000
 
 -0.4666667E+00  0.3333333E+00  0.6666667E-01  0.1422222E-01
    1       -5.847667   1.000000
    2       -1.023324   1.000000
    3        1.778160   1.000000
    4        3.524377   1.000000
    5       15.961684   0.000000
    6       19.511063   0.000000
    7       22.884664   0.000000
    8       24.548204   0.000000
 