    2    2    1    1
  0.5643294E+01  0.2517827E-09  0.2517827E-09  0.2517827E-09  0.5000000E-15
  1.000000000000000E-004
  CAR 
 Diamont Test Results                    
      8      3      8
 
  0.0000000E+00  0.0000000E+00  0.0000000E+00  0.1250000E+00
    1      -11.932904   1.000000
    2        9.436282   1.000000
    3        9.436309   1.000000
    4        9.436311   1.000000
    5       15.427809   0.000000
    6       15.427826   0.000000
    7       15.427830   0.000000
    8       23.327581   0.000000
 
  0.5000000E+00  0.2114441E-16  0.0000000E+00  0.5000000E+00
    1       -6.318744   1.000000
    2       -3.692249   1.000000
    3        6.614576   1.000000
    4        6.614597   1.000000
    5       18.368371   0.000000
    6       18.368394   0.000000
    7       18.757091   0.000000
    8       26.661136   0.000000
 
  0.5000000E+00  0.5000000E+00  0.0000000E+00  0.3750000E+00
    1       -3.307206   1.000000
    2       -3.307205   1.000000
    3        3.213189   1.000000
    4        3.213202   1.000000
    5       14.984667   0.000000
    6       14.984678   0.000000
    7       27.243504   0.000000
    8       27.243531   0.000000
