PROCAR lm decomposed
# of k-points:  120         # of bands:    8         # of ions:    2

 k-point     1 :    0.00000000 0.00000000 0.00000000     weight = 0.00029630

band     1 # energy  -12.12975990 # occ.  2.00000000
 
ion      s     py     pz     px    dxy    dyz    dz2    dxz  x2-y2    tot
    1  0.287  0.000  0.000  0.000  0.000  0.000  0.000  0.000  0.000  0.287
    2  0.287  0.000  0.000  0.000  0.000  0.000  0.000  0.000  0.000  0.287
tot    0.574  0.000  0.000  0.000  0.000  0.000  0.000  0.000  0.000  0.574
 
band     2 # energy    9.02205656 # occ.  2.00000000
 
ion      s     py     pz     px    dxy    dyz    dz2    dxz  x2-y2    tot
    1  0.000  0.195  0.076  0.106  0.000  0.000  0.000  0.000  0.000  0.377
    2  0.000  0.195  0.076  0.106  0.000  0.000  0.000  0.000  0.000  0.377
tot    0.000  0.390  0.152  0.212  0.000  0.000  0.000  0.000  0.000  0.753
 
band     3 # energy    9.02205783 # occ.  2.00000000
 
ion      s     py     pz     px    dxy    dyz    dz2    dxz  x2-y2    tot
    1  0.000  0.079  0.292  0.006  0.000  0.000  0.000  0.000  0.000  0.377
    2  0.000  0.079  0.292  0.006  0.000  0.000  0.000  0.000  0.000  0.377
tot    0.000  0.159  0.583  0.012  0.000  0.000  0.000  0.000  0.000  0.753
 
band     4 # energy    9.02205897 # occ.  2.00000000
 
ion      s     py     pz     px    dxy    dyz    dz2    dxz  x2-y2    tot
    1  0.000  0.103  0.009  0.265  0.000  0.000  0.000  0.000  0.000  0.377
    2  0.000  0.103  0.009  0.265  0.000  0.000  0.000  0.000  0.000  0.377
tot    0.000  0.205  0.018  0.530  0.000  0.000  0.000  0.000  0.000  0.753
 
band     5 # energy   15.06164363 # occ.  0.00000000
 
ion      s     py     pz     px    dxy    dyz    dz2    dxz  x2-y2    tot
    1  0.000  0.029  0.000  0.269  0.000  0.000  0.000  0.000  0.000  0.299
    2  0.000  0.029  0.000  0.269  0.000  0.000  0.000  0.000  0.000  0.299
tot    0.000  0.058  0.000  0.539  0.000  0.000  0.000  0.000  0.000  0.597
 
band     6 # energy   15.06164636 # occ.  0.00000000
 
ion      s     py     pz     px    dxy    dyz    dz2    dxz  x2-y2    tot
    1  0.000  0.001  0.298  0.000  0.000  0.000  0.000  0.000  0.000  0.299
    2  0.000  0.001  0.298  0.000  0.000  0.000  0.000  0.000  0.000  0.299
tot    0.000  0.002  0.595  0.000  0.000  0.000  0.000  0.000  0.000  0.597
 
band     7 # energy   15.06164824 # occ.  0.00000000
 
ion      s     py     pz     px    dxy    dyz    dz2    dxz  x2-y2    tot
    1  0.000  0.269  0.001  0.029  0.000  0.000  0.000  0.000  0.000  0.299
    2  0.000  0.269  0.001  0.029  0.000  0.000  0.000  0.000  0.000  0.299
tot    0.000  0.537  0.002  0.058  0.000  0.000  0.000  0.000  0.000  0.597
 
band     8 # energy   23.03918452 # occ.  0.00000000
 
ion      s     py     pz     px    dxy    dyz    dz2    dxz  x2-y2    tot
    1  0.410  0.000  0.000  0.000  0.000  0.000  0.000  0.000  0.000  0.410
    2  0.410  0.000  0.000  0.000  0.000  0.000  0.000  0.000  0.000  0.410
tot    0.820  0.000  0.000  0.000  0.000  0.000  0.000  0.000  0.000  0.820
 

 k-point     2 :    0.06666667-0.00000000 0.00000000     weight = 0.00237037

band     1 # energy  -12.00823245 # occ.  2.00000000
 
ion      s     py     pz     px    dxy    dyz    dz2    dxz  x2-y2    tot
    1  0.286  0.000  0.000  0.001  0.000  0.000  0.000  0.000  0.000  0.287
    2  0.286  0.000  0.000  0.001  0.000  0.000  0.000  0.000  0.000  0.287
tot    0.572  0.000  0.000  0.003  0.000  0.000  0.000  0.000  0.000  0.575
 
band     2 # energy    8.24222300 # occ.  2.00000000
 
ion      s     py     pz     px    dxy    dyz    dz2    dxz  x2-y2    tot
    1  0.011  0.039  0.000  0.316  0.000  0.000  0.000  0.000  0.000  0.366
    2  0.011  0.039  0.000  0.316  0.000  0.000  0.000  0.000  0.000  0.366
tot    0.022  0.079  0.000  0.631  0.000  0.000  0.000  0.000  0.000  0.732
 
band     3 # energy    8.82026146 # occ.  2.00000000
 
ion      s     py     pz     px    dxy    dyz    dz2    dxz  x2-y2    tot
    1  0.000  0.270  0.071  0.034  0.000  0.000  0.000  0.000  0.000  0.374
    2  0.000  0.270  0.071  0.034  0.000  0.000  0.000  0.000  0.000  0.374
tot    0.000  0.540  0.141  0.067  0.000  0.000  0.000  0.000  0.000  0.748
 
band     4 # energy    8.82026255 # occ.  2.00000000
 
ion      s     py     pz     px    dxy    dyz    dz2    dxz  x2-y2    tot
    1  0.000  0.063  0.304  0.008  0.000  0.000  0.000  0.000  0.000  0.374
    2  0.000  0.063  0.304  0.008  0.000  0.000  0.000  0.000  0.000  0.374
tot    0.000  0.125  0.607  0.016  0.000  0.000  0.000  0.000  0.000  0.748
 
band     5 # energy   15.33188636 # occ.  0.00000000
 
ion      s     py     pz     px    dxy    dyz    dz2    dxz  x2-y2    tot
    1  0.000  0.000  0.302  0.000  0.000  0.000  0.000  0.000  0.000  0.302
    2  0.000  0.000  0.302  0.000  0.000  0.000  0.000  0.000  0.000  0.302
tot    0.000  0.001  0.603  0.000  0.000  0.000  0.000  0.000  0.000  0.604
 
band     6 # energy   15.33188822 # occ.  0.00000000
 
ion      s     py     pz     px    dxy    dyz    dz2    dxz  x2-y2    tot
    1  0.000  0.268  0.000  0.034  0.000  0.000  0.000  0.000  0.000  0.302
    2  0.000  0.268  0.000  0.034  0.000  0.000  0.000  0.000  0.000  0.302
tot    0.000  0.536  0.001  0.067  0.000  0.000  0.000  0.000  0.000  0.604
 
band     7 # energy   15.54314005 # occ.  0.00000000
 
ion      s     py     pz     px    dxy    dyz    dz2    dxz  x2-y2    tot
    1  0.008  0.033  0.000  0.264  0.000  0.000  0.000  0.000  0.000  0.305
    2  0.008  0.033  0.000  0.264  0.000  0.000  0.000  0.000  0.000  0.305
tot    0.016  0.066  0.000  0.529  0.000  0.000  0.000  0.000  0.000  0.611
 
band     8 # energy   23.15012725 # occ.  0.00000000
 
ion      s     py     pz     px    dxy    dyz    dz2    dxz  x2-y2    tot
    1  0.392  0.002  0.000  0.015  0.000  0.000  0.000  0.000  0.000  0.409
    2  0.392  0.002  0.000  0.015  0.000  0.000  0.000  0.000  0.000  0.409
tot    0.784  0.004  0.000  0.029  0.000  0.000  0.000  0.000  0.000  0.817
 

 k-point     3 :    0.13333333-0.00000000 0.00000000     weight = 0.00237037

band     1 # energy  -11.64463928 # occ.  2.00000000
 
ion      s     py     pz     px    dxy    dyz    dz2    dxz  x2-y2    tot
    1  0.282  0.001  0.000  0.006  0.000  0.000  0.000  0.000  0.000  0.289
    2  0.282  0.001  0.000  0.006  0.000  0.000  0.000  0.000  0.000  0.289
tot    0.565  0.001  0.000  0.012  0.000  0.000  0.000  0.000  0.000  0.578
 
band     2 # energy    6.45898886 # occ.  2.00000000
 
ion      s     py     pz     px    dxy    dyz    dz2    dxz  x2-y2    tot
    1  0.034  0.035  0.000  0.280  0.000  0.000  0.000  0.000  0.000  0.350
    2  0.034  0.035  0.000  0.280  0.000  0.000  0.000  0.000  0.000  0.350
tot    0.069  0.070  0.000  0.560  0.000  0.000  0.000  0.000  0.000  0.699
 
band     3 # energy    8.32980217 # occ.  2.00000000
 
ion      s     py     pz     px    dxy    dyz    dz2    dxz  x2-y2    tot
    1  0.000  0.281  0.054  0.035  0.000  0.000  0.000  0.000  0.000  0.369
    2  0.000  0.281  0.054  0.035  0.000  0.000  0.000  0.000  0.000  0.369
tot    0.000  0.561  0.107  0.070  0.000  0.000  0.000  0.000  0.000  0.739
 
band     4 # energy    8.32980327 # occ.  2.00000000
 
ion      s     py     pz     px    dxy    dyz    dz2    dxz  x2-y2    tot
    1  0.000  0.048  0.316  0.006  0.000  0.000  0.000  0.000  0.000  0.369
    2  0.000  0.048  0.316  0.006  0.000  0.000  0.000  0.000  0.000  0.369
tot    0.000  0.095  0.632  0.012  0.000  0.000  0.000  0.000  0.000  0.739
 
band     5 # energy   15.99446746 # occ.  0.00000000
 
ion      s     py     pz     px    dxy    dyz    dz2    dxz  x2-y2    tot
    1  0.000  0.000  0.308  0.000  0.000  0.000  0.000  0.000  0.000  0.308
    2  0.000  0.000  0.308  0.000  0.000  0.000  0.000  0.000  0.000  0.308
tot    0.000  0.000  0.616  0.000  0.000  0.000  0.000  0.000  0.000  0.616
 
band     6 # energy   15.99446928 # occ.  0.00000000
 
ion      s     py     pz     px    dxy    dyz    dz2    dxz  x2-y2    tot
    1  0.000  0.274  0.000  0.034  0.000  0.000  0.000  0.000  0.000  0.308
    2  0.000  0.274  0.000  0.034  0.000  0.000  0.000  0.000  0.000  0.308
tot    0.000  0.547  0.000  0.068  0.000  0.000  0.000  0.000  0.000  0.616
 
band     7 # energy   16.45810505 # occ.  0.00000000
 
ion      s     py     pz     px    dxy    dyz    dz2    dxz  x2-y2    tot
    1  0.042  0.030  0.000  0.240  0.000  0.000  0.000  0.000  0.000  0.312
    2  0.042  0.030  0.000  0.240  0.000  0.000  0.000  0.000  0.000  0.312
tot    0.083  0.060  0.000  0.481  0.000  0.000  0.000  0.000  0.000  0.624
 
band     8 # energy   23.48083843 # occ.  0.00000000
 
ion      s     py     pz     px    dxy    dyz    dz2    dxz  x2-y2    tot
    1  0.339  0.007  0.000  0.058  0.000  0.000  0.000  0.000  0.000  0.404
    2  0.339  0.007  0.000  0.058  0.000  0.000  0.000  0.000  0.000  0.404
tot    0.678  0.014  0.000  0.115  0.000  0.000  0.000  0.000  0.000  0.808
 

 k-point     4 :    0.20000000-0.00000000 0.00000000     weight = 0.00237037

band     1 # energy  -11.04252016 # occ.  2.00000000
 
ion      s     py     pz     px    dxy    dyz    dz2    dxz  x2-y2    tot
    1  0.277  0.002  0.000  0.013  0.000  0.000  0.000  0.000  0.000  0.292
    2  0.277  0.002  0.000  0.013  0.000  0.000  0.000  0.000  0.000  0.292
tot    0.554  0.003  0.000  0.026  0.000  0.000  0.000  0.000  0.000  0.583
 
band     2 # energy    4.30934350 # occ.  2.00000000
 
ion      s     py     pz     px    dxy    dyz    dz2    dxz  x2-y2    tot
    1  0.060  0.031  0.000  0.245  0.000  0.000  0.000  0.000  0.000  0.336
    2  0.060  0.031  0.000  0.245  0.000  0.000  0.000  0.000  0.000  0.336
tot    0.120  0.061  0.000  0.490  0.000  0.000  0.000  0.000  0.000  0.671
 
band     3 # energy    7.74635784 # occ.  2.00000000
 
ion      s     py     pz     px    dxy    dyz    dz2    dxz  x2-y2    tot
    1  0.000  0.292  0.037  0.037  0.000  0.000  0.000  0.000  0.000  0.366
    2  0.000  0.292  0.037  0.037  0.000  0.000  0.000  0.000  0.000  0.366
tot    0.000  0.584  0.075  0.073  0.000  0.000  0.000  0.000  0.000  0.732
 
band     4 # energy    7.74635901 # occ.  2.00000000
 
ion      s     py     pz     px    dxy    dyz    dz2    dxz  x2-y2    tot
    1  0.000  0.033  0.329  0.004  0.000  0.000  0.000  0.000  0.000  0.366
    2  0.000  0.033  0.329  0.004  0.000  0.000  0.000  0.000  0.000  0.366
tot    0.000  0.066  0.657  0.008  0.000  0.000  0.000  0.000  0.000  0.732
 
band     5 # energy   16.76383765 # occ.  0.00000000
 
ion      s     py     pz     px    dxy    dyz    dz2    dxz  x2-y2    tot
    1  0.000  0.000  0.310  0.000  0.000  0.000  0.000  0.000  0.000  0.310
    2  0.000  0.000  0.310  0.000  0.000  0.000  0.000  0.000  0.000  0.310
tot    0.000  0.000  0.619  0.000  0.000  0.000  0.000  0.000  0.000  0.619
 
band     6 # energy   16.76383934 # occ.  0.00000000
 
ion      s     py     pz     px    dxy    dyz    dz2    dxz  x2-y2    tot
    1  0.000  0.275  0.000  0.034  0.000  0.000  0.000  0.000  0.000  0.310
    2  0.000  0.275  0.000  0.034  0.000  0.000  0.000  0.000  0.000  0.310
tot    0.000  0.550  0.000  0.069  0.000  0.000  0.000  0.000  0.000  0.619
 
band     7 # energy   17.25906173 # occ.  0.00000000
 
ion      s     py     pz     px    dxy    dyz    dz2    dxz  x2-y2    tot
    1  0.102  0.024  0.000  0.189  0.000  0.000  0.000  0.000  0.000  0.314
    2  0.102  0.024  0.000  0.189  0.000  0.000  0.000  0.000  0.000  0.314
tot    0.204  0.047  0.000  0.377  0.000  0.000  0.000  0.000  0.000  0.628
 
band     8 # energy   24.00371413 # occ.  0.00000000
 
ion      s     py     pz     px    dxy    dyz    dz2    dxz  x2-y2    tot
    1  0.257  0.015  0.000  0.121  0.000  0.000  0.000  0.000  0.000  0.393
    2  0.257  0.015  0.000  0.121  0.000  0.000  0.000  0.000  0.000  0.393
tot    0.513  0.030  0.000  0.243  0.000  0.000  0.000  0.000  0.000  0.786
 

 k-point     5 :    0.26666667 0.00000000 0.00000000     weight = 0.00237037

band     1 # energy  -10.20972427 # occ.  2.00000000
 
ion      s     py     pz     px    dxy    dyz    dz2    dxz  x2-y2    tot
    1  0.271  0.003  0.000  0.022  0.000  0.000  0.000  0.000  0.000  0.296
    2  0.271  0.003  0.000  0.022  0.000  0.000  0.000  0.000  0.000  0.296
tot    0.542  0.006  0.000  0.044  0.000  0.000  0.000  0.000  0.000  0.591
 
band     2 # energy    2.08040621 # occ.  2.00000000
 
ion      s     py     pz     px    dxy    dyz    dz2    dxz  x2-y2    tot
    1  0.084  0.027  0.000  0.213  0.000  0.000  0.000  0.000  0.000  0.324
    2  0.084  0.027  0.000  0.213  0.000  0.000  0.000  0.000  0.000  0.324
tot    0.168  0.053  0.000  0.426  0.000  0.000  0.000  0.000  0.000  0.647
 
band     3 # energy    7.20051526 # occ.  2.00000000
 
ion      s     py     pz     px    dxy    dyz    dz2    dxz  x2-y2    tot
    1  0.000  0.302  0.025  0.038  0.000  0.000  0.000  0.000  0.000  0.364
    2  0.000  0.302  0.025  0.038  0.000  0.000  0.000  0.000  0.000  0.364
tot    0.000  0.604  0.049  0.075  0.000  0.000  0.000  0.000  0.000  0.729
 
band     4 # energy    7.20051654 # occ.  2.00000000
 
ion      s     py     pz     px    dxy    dyz    dz2    dxz  x2-y2    tot
    1  0.000  0.022  0.340  0.003  0.000  0.000  0.000  0.000  0.000  0.364
    2  0.000  0.022  0.340  0.003  0.000  0.000  0.000  0.000  0.000  0.364
tot    0.000  0.044  0.679  0.005  0.000  0.000  0.000  0.000  0.000  0.729
 
band     5 # energy   17.40362794 # occ.  0.00000000
 
ion      s     py     pz     px    dxy    dyz    dz2    dxz  x2-y2    tot
    1  0.000  0.000  0.303  0.000  0.000  0.000  0.000  0.000  0.000  0.303
    2  0.000  0.000  0.303  0.000  0.000  0.000  0.000  0.000  0.000  0.303
tot    0.000  0.000  0.606  0.000  0.000  0.000  0.000  0.000  0.000  0.607
 
band     6 # energy   17.40362935 # occ.  0.00000000
 
ion      s     py     pz     px    dxy    dyz    dz2    dxz  x2-y2    tot
    1  0.000  0.270  0.000  0.034  0.000  0.000  0.000  0.000  0.000  0.303
    2  0.000  0.270  0.000  0.034  0.000  0.000  0.000  0.000  0.000  0.303
tot    0.000  0.539  0.000  0.067  0.000  0.000  0.000  0.000  0.000  0.607
 
band     7 # energy   17.81694562 # occ.  0.00000000
 
ion      s     py     pz     px    dxy    dyz    dz2    dxz  x2-y2    tot
    1  0.171  0.016  0.000  0.128  0.000  0.000  0.000  0.000  0.000  0.315
    2  0.171  0.016  0.000  0.128  0.000  0.000  0.000  0.000  0.000  0.315
tot    0.342  0.032  0.000  0.256  0.000  0.000  0.000  0.000  0.000  0.629
 
band     8 # energy   24.63535602 # occ.  0.00000000
 
ion      s     py     pz     px    dxy    dyz    dz2    dxz  x2-y2    tot
    1  0.164  0.023  0.000  0.186  0.000  0.000  0.000  0.000  0.000  0.373
    2  0.164  0.023  0.000  0.186  0.000  0.000  0.000  0.000  0.000  0.373
tot    0.328  0.046  0.000  0.372  0.000  0.000  0.000  0.000  0.000  0.746
 

 k-point     6 :    0.33333333-0.00000000 0.00000000     weight = 0.00237037

band     1 # energy   -9.16304728 # occ.  2.00000000
 
ion      s     py     pz     px    dxy    dyz    dz2    dxz  x2-y2    tot
    1  0.265  0.004  0.000  0.032  0.000  0.000  0.000  0.000  0.000  0.301
    2  0.265  0.004  0.000  0.032  0.000  0.000  0.000  0.000  0.000  0.301
tot    0.530  0.008  0.000  0.064  0.000  0.000  0.000  0.000  0.000  0.603
 
band     2 # energy   -0.08397680 # occ.  2.00000000
 
ion      s     py     pz     px    dxy    dyz    dz2    dxz  x2-y2    tot
    1  0.103  0.023  0.000  0.186  0.000  0.000  0.000  0.000  0.000  0.313
    2  0.103  0.023  0.000  0.186  0.000  0.000  0.000  0.000  0.000  0.313
tot    0.207  0.046  0.000  0.372  0.000  0.000  0.000  0.000  0.000  0.625
 
band     3 # energy    6.75872443 # occ.  2.00000000
 
ion      s     py     pz     px    dxy    dyz    dz2    dxz  x2-y2    tot
    1  0.000  0.308  0.018  0.039  0.000  0.000  0.000  0.000  0.000  0.364
    2  0.000  0.308  0.018  0.039  0.000  0.000  0.000  0.000  0.000  0.364
tot    0.000  0.616  0.035  0.077  0.000  0.000  0.000  0.000  0.000  0.728
 
band     4 # energy    6.75872585 # occ.  2.00000000
 
ion      s     py     pz     px    dxy    dyz    dz2    dxz  x2-y2    tot
    1  0.000  0.016  0.347  0.002  0.000  0.000  0.000  0.000  0.000  0.364
    2  0.000  0.016  0.347  0.002  0.000  0.000  0.000  0.000  0.000  0.364
tot    0.000  0.031  0.693  0.004  0.000  0.000  0.000  0.000  0.000  0.728
 
band     5 # energy   17.79996774 # occ.  0.00000000
 
ion      s     py     pz     px    dxy    dyz    dz2    dxz  x2-y2    tot
    1  0.000  0.001  0.289  0.000  0.000  0.000  0.000  0.000  0.000  0.290
    2  0.000  0.001  0.289  0.000  0.000  0.000  0.000  0.000  0.000  0.290
tot    0.000  0.002  0.578  0.000  0.000  0.000  0.000  0.000  0.000  0.580
 
band     6 # energy   17.79996886 # occ.  0.00000000
 
ion      s     py     pz     px    dxy    dyz    dz2    dxz  x2-y2    tot
    1  0.000  0.257  0.001  0.032  0.000  0.000  0.000  0.000  0.000  0.290
    2  0.000  0.257  0.001  0.032  0.000  0.000  0.000  0.000  0.000  0.290
tot    0.000  0.513  0.002  0.064  0.000  0.000  0.000  0.000  0.000  0.580
 
band     7 # energy   18.16719133 # occ.  0.00000000
 
ion      s     py     pz     px    dxy    dyz    dz2    dxz  x2-y2    tot
    1  0.230  0.009  0.000  0.076  0.000  0.000  0.000  0.000  0.000  0.316
    2  0.230  0.009  0.000  0.076  0.000  0.000  0.000  0.000  0.000  0.316
tot    0.460  0.019  0.000  0.152  0.000  0.000  0.000  0.000  0.000  0.631
 
band     8 # energy   25.24250417 # occ.  0.00000000
 
ion      s     py     pz     px    dxy    dyz    dz2    dxz  x2-y2    tot
    1  0.084  0.029  0.000  0.232  0.000  0.000  0.000  0.000  0.000  0.345
    2  0.084  0.029  0.000  0.232  0.000  0.000  0.000  0.000  0.000  0.345
tot    0.167  0.058  0.000  0.464  0.000  0.000  0.000  0.000  0.000  0.689
 

 k-point     7 :    0.40000000-0.00000000 0.00000000     weight = 0.00237037

band     1 # energy   -7.94991578 # occ.  2.00000000
 
ion      s     py     pz     px    dxy    dyz    dz2    dxz  x2-y2    tot
    1  0.265  0.005  0.000  0.040  0.000  0.000  0.000  0.000  0.000  0.310
    2  0.265  0.005  0.000  0.040  0.000  0.000  0.000  0.000  0.000  0.310
tot    0.530  0.010  0.000  0.080  0.000  0.000  0.000  0.000  0.000  0.620
 
band     2 # energy   -2.07042061 # occ.  2.00000000
 
ion      s     py     pz     px    dxy    dyz    dz2    dxz  x2-y2    tot
    1  0.113  0.021  0.000  0.167  0.000  0.000  0.000  0.000  0.000  0.301
    2  0.113  0.021  0.000  0.167  0.000  0.000  0.000  0.000  0.000  0.301
tot    0.226  0.042  0.000  0.334  0.000  0.000  0.000  0.000  0.000  0.602
 
band     3 # energy    6.45274758 # occ.  2.00000000
 
ion      s     py     pz     px    dxy    dyz    dz2    dxz  x2-y2    tot
    1  0.000  0.312  0.014  0.039  0.000  0.000  0.000  0.000  0.000  0.364
    2  0.000  0.312  0.014  0.039  0.000  0.000  0.000  0.000  0.000  0.364
tot    0.000  0.623  0.027  0.078  0.000  0.000  0.000  0.000  0.000  0.729
 
band     4 # energy    6.45274910 # occ.  2.00000000
 
ion      s     py     pz     px    dxy    dyz    dz2    dxz  x2-y2    tot
    1  0.000  0.012  0.351  0.002  0.000  0.000  0.000  0.000  0.000  0.364
    2  0.000  0.012  0.351  0.002  0.000  0.000  0.000  0.000  0.000  0.364
tot    0.000  0.024  0.701  0.003  0.000  0.000  0.000  0.000  0.000  0.729
 
band     5 # energy   17.97988024 # occ.  0.00000000
 
ion      s     py     pz     px    dxy    dyz    dz2    dxz  x2-y2    tot
    1  0.000  0.005  0.270  0.001  0.000  0.000  0.000  0.000  0.000  0.276
    2  0.000  0.005  0.270  0.001  0.000  0.000  0.000  0.000  0.000  0.276
tot    0.000  0.011  0.540  0.001  0.000  0.000  0.000  0.000  0.000  0.552
 
band     6 # energy   17.97988114 # occ.  0.00000000
 
ion      s     py     pz     px    dxy    dyz    dz2    dxz  x2-y2    tot
    1  0.000  0.240  0.006  0.030  0.000  0.000  0.000  0.000  0.000  0.276
    2  0.000  0.240  0.006  0.030  0.000  0.000  0.000  0.000  0.000  0.276
tot    0.000  0.480  0.012  0.060  0.000  0.000  0.000  0.000  0.000  0.552
 
band     7 # energy   18.36868001 # occ.  0.00000000
 
ion      s     py     pz     px    dxy    dyz    dz2    dxz  x2-y2    tot
    1  0.271  0.005  0.000  0.041  0.000  0.000  0.000  0.000  0.000  0.317
    2  0.271  0.005  0.000  0.041  0.000  0.000  0.000  0.000  0.000  0.317
tot    0.542  0.010  0.000  0.081  0.000  0.000  0.000  0.000  0.000  0.633
 
band     8 # energy   25.68657879 # occ.  0.00000000
 
ion      s     py     pz     px    dxy    dyz    dz2    dxz  x2-y2    tot
    1  0.030  0.031  0.000  0.251  0.000  0.000  0.000  0.000  0.000  0.313
    2  0.030  0.031  0.000  0.251  0.000  0.000  0.000  0.000  0.000  0.313
tot    0.060  0.063  0.000  0.502  0.000  0.000  0.000  0.000  0.000  0.625
 

 k-point     8 :    0.46666667-0.00000000 0.00000000     weight = 0.00237037

band     1 # energy   -6.79290232 # occ.  2.00000000
 
ion      s     py     pz     px    dxy    dyz    dz2    dxz  x2-y2    tot
    1  0.286  0.004  0.000  0.035  0.000  0.000  0.000  0.000  0.000  0.325
    2  0.286  0.004  0.000  0.035  0.000  0.000  0.000  0.000  0.000  0.325
tot    0.573  0.009  0.000  0.069  0.000  0.000  0.000  0.000  0.000  0.650
 
band     2 # energy   -3.62179984 # occ.  2.00000000
 
ion      s     py     pz     px    dxy    dyz    dz2    dxz  x2-y2    tot
    1  0.096  0.021  0.000  0.167  0.000  0.000  0.000  0.000  0.000  0.284
    2  0.096  0.021  0.000  0.167  0.000  0.000  0.000  0.000  0.000  0.284
tot    0.192  0.042  0.000  0.334  0.000  0.000  0.000  0.000  0.000  0.568
 
band     3 # energy    6.29700071 # occ.  2.00000000
 
ion      s     py     pz     px    dxy    dyz    dz2    dxz  x2-y2    tot
    1  0.000  0.313  0.012  0.039  0.000  0.000  0.000  0.000  0.000  0.365
    2  0.000  0.313  0.012  0.039  0.000  0.000  0.000  0.000  0.000  0.365
tot    0.000  0.626  0.024  0.078  0.000  0.000  0.000  0.000  0.000  0.729
 
band     4 # energy    6.29700230 # occ.  2.00000000
 
ion      s     py     pz     px    dxy    dyz    dz2    dxz  x2-y2    tot
    1  0.000  0.011  0.352  0.001  0.000  0.000  0.000  0.000  0.000  0.365
    2  0.000  0.011  0.352  0.001  0.000  0.000  0.000  0.000  0.000  0.365
tot    0.000  0.022  0.705  0.003  0.000  0.000  0.000  0.000  0.000  0.729
 
band     5 # energy   18.03557535 # occ.  0.00000000
 
ion      s     py     pz     px    dxy    dyz    dz2    dxz  x2-y2    tot
    1  0.000  0.010  0.256  0.001  0.000  0.000  0.000  0.000  0.000  0.267
    2  0.000  0.010  0.256  0.001  0.000  0.000  0.000  0.000  0.000  0.267
tot    0.000  0.020  0.512  0.003  0.000  0.000  0.000  0.000  0.000  0.535
 
band     6 # energy   18.03557615 # occ.  0.00000000
 
ion      s     py     pz     px    dxy    dyz    dz2    dxz  x2-y2    tot
    1  0.000  0.228  0.011  0.028  0.000  0.000  0.000  0.000  0.000  0.267
    2  0.000  0.228  0.011  0.028  0.000  0.000  0.000  0.000  0.000  0.267
tot    0.000  0.455  0.023  0.057  0.000  0.000  0.000  0.000  0.000  0.535
 
band     7 # energy   18.46073624 # occ.  0.00000000
 
ion      s     py     pz     px    dxy    dyz    dz2    dxz  x2-y2    tot
    1  0.291  0.003  0.000  0.023  0.000  0.000  0.000  0.000  0.000  0.317
    2  0.291  0.003  0.000  0.023  0.000  0.000  0.000  0.000  0.000  0.317
tot    0.582  0.006  0.000  0.046  0.000  0.000  0.000  0.000  0.000  0.634
 
band     8 # energy   25.90936758 # occ.  0.00000000
 
ion      s     py     pz     px    dxy    dyz    dz2    dxz  x2-y2    tot
    1  0.006  0.032  0.000  0.253  0.000  0.000  0.000  0.000  0.000  0.291
    2  0.006  0.032  0.000  0.253  0.000  0.000  0.000  0.000  0.000  0.291
tot    0.012  0.063  0.000  0.506  0.000  0.000  0.000  0.000  0.000  0.582
 

 k-point     9 :    0.06666667 0.06666667 0.00000000     weight = 0.00177778

band     1 # energy  -11.96772767 # occ.  2.00000000
 
ion      s     py     pz     px    dxy    dyz    dz2    dxz  x2-y2    tot
    1  0.285  0.001  0.000  0.001  0.000  0.000  0.000  0.000  0.000  0.288
    2  0.285  0.001  0.000  0.001  0.000  0.000  0.000  0.000  0.000  0.288
tot    0.571  0.001  0.000  0.003  0.000  0.000  0.000  0.000  0.000  0.575
 
band     2 # energy    8.44133879 # occ.  2.00000000
 
ion      s     py     pz     px    dxy    dyz    dz2    dxz  x2-y2    tot
    1  0.000  0.000  0.367  0.000  0.000  0.000  0.000  0.000  0.000  0.367
    2  0.000  0.000  0.367  0.000  0.000  0.000  0.000  0.000  0.000  0.367
tot    0.000  0.000  0.734  0.000  0.000  0.000  0.000  0.000  0.000  0.734
 
band     3 # energy    8.44133957 # occ.  2.00000000
 
ion      s     py     pz     px    dxy    dyz    dz2    dxz  x2-y2    tot
    1  0.000  0.245  0.000  0.122  0.000  0.000  0.000  0.000  0.000  0.367
    2  0.000  0.245  0.000  0.122  0.000  0.000  0.000  0.000  0.000  0.367
tot    0.000  0.489  0.000  0.245  0.000  0.000  0.000  0.000  0.000  0.734
 
band     4 # energy    8.62780795 # occ.  2.00000000
 
ion      s     py     pz     px    dxy    dyz    dz2    dxz  x2-y2    tot
    1  0.016  0.120  0.000  0.240  0.000  0.000  0.000  0.000  0.000  0.376
    2  0.016  0.120  0.000  0.240  0.000  0.000  0.000  0.000  0.000  0.376
tot    0.032  0.240  0.000  0.481  0.000  0.000  0.000  0.000  0.000  0.753
 
band     5 # energy   14.95924061 # occ.  0.00000000
 
ion      s     py     pz     px    dxy    dyz    dz2    dxz  x2-y2    tot
    1  0.008  0.095  0.000  0.190  0.000  0.000  0.000  0.000  0.000  0.293
    2  0.008  0.095  0.000  0.190  0.000  0.000  0.000  0.000  0.000  0.293
tot    0.016  0.190  0.000  0.381  0.000  0.000  0.000  0.000  0.000  0.587
 
band     6 # energy   15.79172701 # occ.  0.00000000
 
ion      s     py     pz     px    dxy    dyz    dz2    dxz  x2-y2    tot
    1  0.000  0.206  0.000  0.103  0.000  0.000  0.000  0.000  0.000  0.310
    2  0.000  0.206  0.000  0.103  0.000  0.000  0.000  0.000  0.000  0.310
tot    0.000  0.413  0.000  0.206  0.000  0.000  0.000  0.000  0.000  0.619
 
band     7 # energy   15.79172780 # occ.  0.00000000
 
ion      s     py     pz     px    dxy    dyz    dz2    dxz  x2-y2    tot
    1  0.000  0.000  0.310  0.000  0.000  0.000  0.000  0.000  0.000  0.310
    2  0.000  0.000  0.310  0.000  0.000  0.000  0.000  0.000  0.000  0.310
tot    0.000  0.000  0.619  0.000  0.000  0.000  0.000  0.000  0.000  0.619
 
band     8 # energy   23.15037092 # occ.  0.00000000
 
ion      s     py     pz     px    dxy    dyz    dz2    dxz  x2-y2    tot
    1  0.386  0.007  0.000  0.013  0.000  0.000  0.000  0.000  0.000  0.406
    2  0.386  0.007  0.000  0.013  0.000  0.000  0.000  0.000  0.000  0.406
tot    0.772  0.013  0.000  0.027  0.000  0.000  0.000  0.000  0.000  0.812
 

 k-point    10 :    0.13333333 0.06666667 0.00000000     weight = 0.00711111

band     1 # energy  -11.68488102 # occ.  2.00000000
 
ion      s     py     pz     px    dxy    dyz    dz2    dxz  x2-y2    tot
    1  0.283  0.000  0.000  0.006  0.000  0.000  0.000  0.000  0.000  0.289
    2  0.283  0.000  0.000  0.006  0.000  0.000  0.000  0.000  0.000  0.289
tot    0.565  0.000  0.000  0.012  0.000  0.000  0.000  0.000  0.000  0.578
 
band     2 # energy    7.05337404 # occ.  2.00000000
 
ion      s     py     pz     px    dxy    dyz    dz2    dxz  x2-y2    tot
    1  0.026  0.047  0.000  0.283  0.000  0.000  0.000  0.000  0.000  0.356
    2  0.026  0.047  0.000  0.283  0.000  0.000  0.000  0.000  0.000  0.356
tot    0.051  0.094  0.000  0.566  0.000  0.000  0.000  0.000  0.000  0.711
 
band     3 # energy    7.85637273 # occ.  2.00000000
 
ion      s     py     pz     px    dxy    dyz    dz2    dxz  x2-y2    tot
    1  0.000  0.000  0.361  0.000  0.000  0.000  0.000  0.000  0.000  0.361
    2  0.000  0.000  0.361  0.000  0.000  0.000  0.000  0.000  0.000  0.361
tot    0.000  0.000  0.721  0.000  0.000  0.000  0.000  0.000  0.000  0.721
 
band     4 # energy    8.42340143 # occ.  2.00000000
 
ion      s     py     pz     px    dxy    dyz    dz2    dxz  x2-y2    tot
    1  0.011  0.313  0.000  0.050  0.000  0.000  0.000  0.000  0.000  0.374
    2  0.011  0.313  0.000  0.050  0.000  0.000  0.000  0.000  0.000  0.374
tot    0.022  0.626  0.000  0.100  0.000  0.000  0.000  0.000  0.000  0.748
 
band     5 # energy   15.15705264 # occ.  0.00000000
 
ion      s     py     pz     px    dxy    dyz    dz2    dxz  x2-y2    tot
    1  0.013  0.161  0.000  0.118  0.000  0.000  0.000  0.000  0.000  0.293
    2  0.013  0.161  0.000  0.118  0.000  0.000  0.000  0.000  0.000  0.293
tot    0.026  0.322  0.000  0.237  0.000  0.000  0.000  0.000  0.000  0.585
 
band     6 # energy   16.57381383 # occ.  0.00000000
 
ion      s     py     pz     px    dxy    dyz    dz2    dxz  x2-y2    tot
    1  0.000  0.000  0.317  0.000  0.000  0.000  0.000  0.000  0.000  0.317
    2  0.000  0.000  0.317  0.000  0.000  0.000  0.000  0.000  0.000  0.317
tot    0.000  0.000  0.635  0.000  0.000  0.000  0.000  0.000  0.000  0.635
 
band     7 # energy   16.63399648 # occ.  0.00000000
 
ion      s     py     pz     px    dxy    dyz    dz2    dxz  x2-y2    tot
    1  0.015  0.154  0.000  0.148  0.000  0.000  0.000  0.000  0.000  0.317
    2  0.015  0.154  0.000  0.148  0.000  0.000  0.000  0.000  0.000  0.317
tot    0.030  0.309  0.000  0.296  0.000  0.000  0.000  0.000  0.000  0.635
 
band     8 # energy   23.29578749 # occ.  0.00000000
 
ion      s     py     pz     px    dxy    dyz    dz2    dxz  x2-y2    tot
    1  0.343  0.001  0.000  0.052  0.000  0.000  0.000  0.000  0.000  0.396
    2  0.343  0.001  0.000  0.052  0.000  0.000  0.000  0.000  0.000  0.396
tot    0.686  0.002  0.000  0.103  0.000  0.000  0.000  0.000  0.000  0.792
 

 k-point    11 :    0.20000000 0.06666667 0.00000000     weight = 0.00711111

band     1 # energy  -11.16220574 # occ.  2.00000000
 
ion      s     py     pz     px    dxy    dyz    dz2    dxz  x2-y2    tot
    1  0.278  0.000  0.000  0.013  0.000  0.000  0.000  0.000  0.000  0.291
    2  0.278  0.000  0.000  0.013  0.000  0.000  0.000  0.000  0.000  0.291