PROCAR lm decomposed
# of k-points:    3         # of bands:    8         # of ions:    2

 k-point     1 :    0.00000000 0.00000000 0.00000000     weight = 0.12500000

band     1 # energy  -11.93290416 # occ.  2.00000000
 
ion      s     py     pz     px    dxy    dyz    dz2    dxz  x2-y2    tot
    1  0.285  0.000  0.000  0.000  0.000  0.000  0.000  0.000  0.000  0.285
    2  0.285  0.000  0.000  0.000  0.000  0.000  0.000  0.000  0.000  0.285
tot    0.569  0.000  0.000  0.000  0.000  0.000  0.000  0.000  0.000  0.569
 
band     2 # energy    9.43628167 # occ.  2.00000000
 
ion      s     py     pz     px    dxy    dyz    dz2    dxz  x2-y2    tot
    1  0.000  0.047  0.248  0.085  0.000  0.000  0.000  0.000  0.000  0.381
    2  0.000  0.047  0.248  0.085  0.000  0.000  0.000  0.000  0.000  0.381
tot    0.000  0.094  0.497  0.170  0.000  0.000  0.000  0.000  0.000  0.761
 
band     3 # energy    9.43630922 # occ.  2.00000000
 
ion      s     py     pz     px    dxy    dyz    dz2    dxz  x2-y2    tot
    1  0.000  0.231  0.108  0.042  0.000  0.000  0.000  0.000  0.000  0.381
    2  0.000  0.231  0.108  0.042  0.000  0.000  0.000  0.000  0.000  0.381
tot    0.000  0.461  0.216  0.084  0.000  0.000  0.000  0.000  0.000  0.761
 
band     4 # energy    9.43631064 # occ.  2.00000000
 
ion      s     py     pz     px    dxy    dyz    dz2    dxz  x2-y2    tot
    1  0.000  0.103  0.024  0.254  0.000  0.000  0.000  0.000  0.000  0.381
    2  0.000  0.103  0.024  0.254  0.000  0.000  0.000  0.000  0.000  0.381
tot    0.000  0.206  0.048  0.507  0.000  0.000  0.000  0.000  0.000  0.761
 
band     5 # energy   15.42780879 # occ.  0.00000000
 
ion      s     py     pz     px    dxy    dyz    dz2    dxz  x2-y2    tot
    1  0.000  0.023  0.200  0.077  0.000  0.000  0.000  0.000  0.000  0.299
    2  0.000  0.023  0.200  0.077  0.000  0.000  0.000  0.000  0.000  0.299
tot    0.000  0.046  0.399  0.154  0.000  0.000  0.000  0.000  0.000  0.599
 
band     6 # energy   15.42782609 # occ.  0.00000000
 
ion      s     py     pz     px    dxy    dyz    dz2    dxz  x2-y2    tot
    1  0.000  0.046  0.045  0.209  0.000  0.000  0.000  0.000  0.000  0.299
    2  0.000  0.046  0.045  0.209  0.000  0.000  0.000  0.000  0.000  0.299
tot    0.000  0.092  0.090  0.417  0.000  0.000  0.000  0.000  0.000  0.599
 
band     7 # energy   15.42782987 # occ.  0.00000000
 
ion      s     py     pz     px    dxy    dyz    dz2    dxz  x2-y2    tot
    1  0.000  0.231  0.055  0.014  0.000  0.000  0.000  0.000  0.000  0.299
    2  0.000  0.231  0.055  0.014  0.000  0.000  0.000  0.000  0.000  0.299
tot    0.000  0.461  0.110  0.027  0.000  0.000  0.000  0.000  0.000  0.599
 
band     8 # energy   23.32758067 # occ.  0.00000000
 
ion      s     py     pz     px    dxy    dyz    dz2    dxz  x2-y2    tot
    1  0.396  0.000  0.000  0.000  0.000  0.000  0.000  0.000  0.000  0.396
    2  0.396  0.000  0.000  0.000  0.000  0.000  0.000  0.000  0.000  0.396
tot    0.792  0.000  0.000  0.000  0.000  0.000  0.000  0.000  0.000  0.792
 

 k-point     2 :    0.50000000 0.00000000 0.00000000     weight = 0.50000000

band     1 # energy   -6.31874443 # occ.  2.00000000
 
ion      s     py     pz     px    dxy    dyz    dz2    dxz  x2-y2    tot
    1  0.298  0.004  0.000  0.029  0.000  0.000  0.000  0.000  0.000  0.330
    2  0.298  0.004  0.000  0.029  0.000  0.000  0.000  0.000  0.000  0.330
tot    0.595  0.007  0.000  0.057  0.000  0.000  0.000  0.000  0.000  0.660
 
band     2 # energy   -3.69224905 # occ.  2.00000000
 
ion      s     py     pz     px    dxy    dyz    dz2    dxz  x2-y2    tot
    1  0.083  0.022  0.000  0.172  0.000  0.000  0.000  0.000  0.000  0.277
    2  0.083  0.022  0.000  0.172  0.000  0.000  0.000  0.000  0.000  0.277
tot    0.167  0.043  0.000  0.345  0.000  0.000  0.000  0.000  0.000  0.555
 
band     3 # energy    6.61457607 # occ.  2.00000000
 
ion      s     py     pz     px    dxy    dyz    dz2    dxz  x2-y2    tot
    1  0.000  0.092  0.264  0.012  0.000  0.000  0.000  0.000  0.000  0.367
    2  0.000  0.092  0.264  0.012  0.000  0.000  0.000  0.000  0.000  0.367
tot    0.000  0.184  0.527  0.023  0.000  0.000  0.000  0.000  0.000  0.735
 
band     4 # energy    6.61459742 # occ.  2.00000000
 
ion      s     py     pz     px    dxy    dyz    dz2    dxz  x2-y2    tot
    1  0.000  0.234  0.104  0.029  0.000  0.000  0.000  0.000  0.000  0.367
    2  0.000  0.234  0.104  0.029  0.000  0.000  0.000  0.000  0.000  0.367
tot    0.000  0.469  0.207  0.059  0.000  0.000  0.000  0.000  0.000  0.735
 
band     5 # energy   18.36837133 # occ.  0.00000000
 
ion      s     py     pz     px    dxy    dyz    dz2    dxz  x2-y2    tot
    1  0.000  0.055  0.202  0.007  0.000  0.000  0.000  0.000  0.000  0.264
    2  0.000  0.055  0.202  0.007  0.000  0.000  0.000  0.000  0.000  0.264
tot    0.000  0.111  0.404  0.014  0.000  0.000  0.000  0.000  0.000  0.528
 
band     6 # energy   18.36839413 # occ.  0.00000000
 
ion      s     py     pz     px    dxy    dyz    dz2    dxz  x2-y2    tot
    1  0.000  0.179  0.062  0.022  0.000  0.000  0.000  0.000  0.000  0.264
    2  0.000  0.179  0.062  0.022  0.000  0.000  0.000  0.000  0.000  0.264
tot    0.000  0.359  0.125  0.045  0.000  0.000  0.000  0.000  0.000  0.528
 
band     7 # energy   18.75709138 # occ.  0.00000000
 
ion      s     py     pz     px    dxy    dyz    dz2    dxz  x2-y2    tot
    1  0.279  0.002  0.000  0.020  0.000  0.000  0.000  0.000  0.000  0.301
    2  0.279  0.002  0.000  0.020  0.000  0.000  0.000  0.000  0.000  0.301
tot    0.558  0.005  0.000  0.040  0.000  0.000  0.000  0.000  0.000  0.603
 
band     8 # energy   26.66113574 # occ.  0.00000000
 
ion      s     py     pz     px    dxy    dyz    dz2    dxz  x2-y2    tot
    1  0.001  0.029  0.000  0.235  0.000  0.000  0.000  0.000  0.000  0.265
    2  0.001  0.029  0.000  0.235  0.000  0.000  0.000  0.000  0.000  0.265
tot    0.003  0.059  0.000  0.469  0.000  0.000  0.000  0.000  0.000  0.531
 

 k-point     3 :    0.50000000 0.50000000 0.00000000     weight = 0.37500000

band     1 # energy   -3.30720559 # occ.  2.00000000
 
ion      s     py     pz     px    dxy    dyz    dz2    dxz  x2-y2    tot
    1  0.213  0.038  0.000  0.075  0.000  0.000  0.000  0.000  0.000  0.326
    2  0.213  0.038  0.000  0.075  0.000  0.000  0.000  0.000  0.000  0.326
tot    0.425  0.075  0.000  0.151  0.000  0.000  0.000  0.000  0.000  0.651
 
band     2 # energy   -3.30720513 # occ.  2.00000000
 
ion      s     py     pz     px    dxy    dyz    dz2    dxz  x2-y2    tot
    1  0.213  0.038  0.000  0.075  0.000  0.000  0.000  0.000  0.000  0.326
    2  0.213  0.038  0.000  0.075  0.000  0.000  0.000  0.000  0.000  0.326
tot    0.425  0.075  0.000  0.151  0.000  0.000  0.000  0.000  0.000  0.651
 
band     3 # energy    3.21318947 # occ.  2.00000000
 
ion      s     py     pz     px    dxy    dyz    dz2    dxz  x2-y2    tot
    1  0.000  0.000  0.336  0.000  0.000  0.000  0.000  0.000  0.000  0.336
    2  0.000  0.000  0.336  0.000  0.000  0.000  0.000  0.000  0.000  0.336
tot    0.000  0.000  0.672  0.000  0.000  0.000  0.000  0.000  0.000  0.672
 
band     4 # energy    3.21320197 # occ.  2.00000000
 
ion      s     py     pz     px    dxy    dyz    dz2    dxz  x2-y2    tot
    1  0.000  0.224  0.000  0.112  0.000  0.000  0.000  0.000  0.000  0.336
    2  0.000  0.224  0.000  0.112  0.000  0.000  0.000  0.000  0.000  0.336
tot    0.000  0.448  0.000  0.224  0.000  0.000  0.000  0.000  0.000  0.672
 
band     5 # energy   14.98466739 # occ.  0.00000000
 
ion      s     py     pz     px    dxy    dyz    dz2    dxz  x2-y2    tot
    1  0.110  0.020  0.000  0.040  0.000  0.000  0.000  0.000  0.000  0.170
    2  0.110  0.020  0.000  0.040  0.000  0.000  0.000  0.000  0.000  0.170
tot    0.221  0.040  0.000  0.080  0.000  0.000  0.000  0.000  0.000  0.340
 
band     6 # energy   14.98467754 # occ.  0.00000000
 
ion      s     py     pz     px    dxy    dyz    dz2    dxz  x2-y2    tot
    1  0.110  0.020  0.000  0.040  0.000  0.000  0.000  0.000  0.000  0.170
    2  0.110  0.020  0.000  0.040  0.000  0.000  0.000  0.000  0.000  0.170
tot    0.221  0.040  0.000  0.080  0.000  0.000  0.000  0.000  0.000  0.340
 
band     7 # energy   27.24350436 # occ.  0.00000000
 
ion      s     py     pz     px    dxy    dyz    dz2    dxz  x2-y2    tot
    1  0.000  0.000  0.426  0.000  0.000  0.000  0.000  0.000  0.000  0.426
    2  0.000  0.000  0.426  0.000  0.000  0.000  0.000  0.000  0.000  0.426
tot    0.000  0.000  0.852  0.000  0.000  0.000  0.000  0.000  0.000  0.852
 
band     8 # energy   27.24353064 # occ.  0.00000000
 
ion      s     py     pz     px    dxy    dyz    dz2    dxz  x2-y2    tot
    1  0.000  0.284  0.000  0.142  0.000  0.000  0.000  0.000  0.000  0.426
    2  0.000  0.284  0.000  0.142  0.000  0.000  0.000  0.000  0.000  0.426
tot    0.000  0.568  0.000  0.284  0.000  0.000  0.000  0.000  0.000  0.852
 
