<?xml version="1.0" encoding="ISO-8859-1"?>
<modeling>
 <generator>
  <i name="program" type="string">vasp </i>
  <i name="version" type="string">5.4.4.18Apr17-6-g9f103f2a35  </i>
  <i name="subversion" type="string">(build Jan 25 2021 16:16:55) complex            parallel </i>
  <i name="platform" type="string">LinuxIFC </i>
  <i name="date" type="string">2026 04 30 </i>
  <i name="time" type="string">12:29:42 </i>
 </generator>
 <incar>
  <i type="string" name="SYSTEM"> r-GeO2 ENCUT convergence test</i>
  <i type="int" name="ISTART">     0</i>
  <i type="string" name="PREC">accurate</i>
  <i type="string" name="ALGO"> Normal</i>
  <i type="int" name="ICHARG">     2</i>
  <i type="int" name="IBRION">    -1</i>
  <i name="EDIFF">      0.00010000</i>
  <i type="int" name="NSW">     0</i>
  <i name="ENCUT">    500.00000000</i>
  <i type="logical" name="LREAL"> F  </i>
  <i type="int" name="ISMEAR">     0</i>
  <i name="SIGMA">      0.05000000</i>
  <i type="logical" name="LWAVE"> F  </i>
  <i type="logical" name="LCHARG"> F  </i>
  <i type="int" name="LORBIT">    11</i>
  <i type="logical" name="LASPH"> T  </i>
  <v type="int" name="KPOINT_BSE">    -1     0     0     0</v>
  <i type="logical" name="LASPH"> T  </i>
 </incar>
 <structure name="primitive_cell" >
  <crystal>
   <varray name="basis" >
    <v>       2.18050236       0.00000000       1.25891346 </v>
    <v>       0.72683412       2.05579703       1.25891346 </v>
    <v>       0.00000000       0.00000000       2.51782692 </v>
   </varray>
   <i name="volume">     11.28658789 </i>
   <varray name="rec_basis" >
    <v>       0.45860991      -0.16214311       0.00000000 </v>
    <v>       0.00000000       0.48642934       0.00000000 </v>
    <v>      -0.22930496      -0.16214311       0.39716789 </v>
   </varray>
  </crystal>
  <varray name="positions" >
   <v>      -0.12500000      -0.12500000      -0.12500000 </v>
   <v>       0.12500000       0.12500000       0.12500000 </v>
  </varray>
 </structure>
 <varray name="primitive_index" >
  <v type="int" >        1 </v>
  <v type="int" >        2 </v>
 </varray>
 <kpoints>
  <generation param="Gamma">
   <v type="int" name="divisions">      15       15       15 </v>
   <v name="usershift">      0.00000000       0.00000000       0.00000000 </v>
   <v name="genvec1">      0.06666667      -0.00000000       0.00000000 </v>
   <v name="genvec2">      0.00000000       0.06666667       0.00000000 </v>
   <v name="genvec3">      0.00000000       0.00000000       0.06666667 </v>
   <v name="shift">      0.00000000       0.00000000       0.00000000 </v>
  </generation>
  <varray name="kpointlist" >
   <v>       0.00000000       0.00000000       0.00000000 </v>
   <v>       0.06666667      -0.00000000       0.00000000 </v>
   <v>       0.13333333      -0.00000000       0.00000000 </v>
   <v>       0.20000000      -0.00000000       0.00000000 </v>
   <v>       0.26666667       0.00000000       0.00000000 </v>
   <v>       0.33333333      -0.00000000       0.00000000 </v>
   <v>       0.40000000      -0.00000000       0.00000000 </v>
   <v>       0.46666667      -0.00000000       0.00000000 </v>
   <v>       0.06666667       0.06666667       0.00000000 </v>
   <v>       0.13333333       0.06666667       0.00000000 </v>
   <v>       0.20000000       0.06666667       0.00000000 </v>
   <v>       0.26666667       0.06666667       0.00000000 </v>
   <v>       0.33333333       0.06666667       0.00000000 </v>
   <v>       0.40000000       0.06666667       0.00000000 </v>
   <v>       0.46666667       0.06666667       0.00000000 </v>
   <v>      -0.46666667       0.06666667       0.00000000 </v>
   <v>      -0.40000000       0.06666667       0.00000000 </v>
   <v>      -0.33333333       0.06666667       0.00000000 </v>
   <v>      -0.26666667       0.06666667       0.00000000 </v>
   <v>      -0.20000000       0.06666667       0.00000000 </v>
   <v>      -0.13333333       0.06666667       0.00000000 </v>
   <v>      -0.06666667       0.06666667       0.00000000 </v>
   <v>       0.13333333       0.13333333       0.00000000 </v>
   <v>       0.20000000       0.13333333       0.00000000 </v>
   <v>       0.26666667       0.13333333       0.00000000 </v>
   <v>       0.33333333       0.13333333       0.00000000 </v>
   <v>       0.40000000       0.13333333       0.00000000 </v>
   <v>       0.46666667       0.13333333       0.00000000 </v>
   <v>      -0.46666667       0.13333333       0.00000000 </v>
   <v>      -0.40000000       0.13333333       0.00000000 </v>
   <v>      -0.33333333       0.13333333       0.00000000 </v>
   <v>      -0.26666667       0.13333333       0.00000000 </v>
   <v>      -0.20000000       0.13333333       0.00000000 </v>
   <v>      -0.13333333       0.13333333       0.00000000 </v>
   <v>       0.20000000       0.20000000       0.00000000 </v>
   <v>       0.26666667       0.20000000       0.00000000 </v>
   <v>       0.33333333       0.20000000       0.00000000 </v>
   <v>       0.40000000       0.20000000       0.00000000 </v>
   <v>       0.46666667       0.20000000       0.00000000 </v>
   <v>      -0.46666667       0.20000000       0.00000000 </v>
   <v>      -0.40000000       0.20000000       0.00000000 </v>
   <v>      -0.33333333       0.20000000       0.00000000 </v>
   <v>      -0.26666667       0.20000000       0.00000000 </v>
   <v>      -0.20000000       0.20000000       0.00000000 </v>
   <v>       0.26666667       0.26666667       0.00000000 </v>
   <v>       0.33333333       0.26666667       0.00000000 </v>
   <v>       0.40000000       0.26666667       0.00000000 </v>
   <v>       0.46666667       0.26666667       0.00000000 </v>
   <v>      -0.46666667       0.26666667       0.00000000 </v>
   <v>      -0.40000000       0.26666667       0.00000000 </v>
   <v>      -0.33333333       0.26666667       0.00000000 </v>
   <v>      -0.26666667       0.26666667       0.00000000 </v>
   <v>       0.33333333       0.33333333       0.00000000 </v>
   <v>       0.40000000       0.33333333       0.00000000 </v>
   <v>       0.46666667       0.33333333       0.00000000 </v>
   <v>      -0.46666667       0.33333333       0.00000000 </v>
   <v>      -0.40000000       0.33333333       0.00000000 </v>
   <v>      -0.33333333       0.33333333       0.00000000 </v>
   <v>       0.40000000       0.40000000       0.00000000 </v>
   <v>       0.46666667       0.40000000       0.00000000 </v>
   <v>      -0.46666667       0.40000000       0.00000000 </v>
   <v>      -0.40000000       0.40000000       0.00000000 </v>
   <v>       0.46666667       0.46666667       0.00000000 </v>
   <v>      -0.46666667       0.46666667       0.00000000 </v>
   <v>       0.20000000       0.13333333       0.06666667 </v>
   <v>       0.26666667       0.13333333       0.06666667 </v>
   <v>       0.33333333       0.13333333       0.06666667 </v>
   <v>       0.40000000       0.13333333       0.06666667 </v>
   <v>       0.46666667       0.13333333       0.06666667 </v>
   <v>      -0.46666667       0.13333333       0.06666667 </v>
   <v>       0.26666667       0.20000000       0.06666667 </v>
   <v>       0.33333333       0.20000000       0.06666667 </v>
   <v>       0.40000000       0.20000000       0.06666667 </v>
   <v>       0.46666667       0.20000000       0.06666667 </v>
   <v>      -0.46666667       0.20000000       0.06666667 </v>
   <v>      -0.40000000       0.20000000       0.06666667 </v>
   <v>      -0.33333333       0.20000000       0.06666667 </v>
   <v>      -0.26666667       0.20000000       0.06666667 </v>
   <v>      -0.20000000       0.20000000       0.06666667 </v>
   <v>      -0.13333333       0.20000000       0.06666667 </v>
   <v>       0.33333333       0.26666667       0.06666667 </v>
   <v>       0.40000000       0.26666667       0.06666667 </v>
   <v>       0.46666667       0.26666667       0.06666667 </v>
   <v>      -0.46666667       0.26666667       0.06666667 </v>
   <v>      -0.40000000       0.26666667       0.06666667 </v>
   <v>      -0.33333333       0.26666667       0.06666667 </v>
   <v>      -0.26666667       0.26666667       0.06666667 </v>
   <v>      -0.20000000       0.26666667       0.06666667 </v>
   <v>       0.40000000       0.33333333       0.06666667 </v>
   <v>       0.46666667       0.33333333       0.06666667 </v>
   <v>      -0.46666667       0.33333333       0.06666667 </v>
   <v>      -0.40000000       0.33333333       0.06666667 </v>
   <v>      -0.33333333       0.33333333       0.06666667 </v>
   <v>      -0.26666667       0.33333333       0.06666667 </v>
   <v>       0.46666667       0.40000000       0.06666667 </v>
   <v>      -0.46666667       0.40000000       0.06666667 </v>
   <v>      -0.40000000       0.40000000       0.06666667 </v>
   <v>      -0.33333333       0.40000000       0.06666667 </v>
   <v>      -0.46666667       0.46666667       0.06666667 </v>
   <v>      -0.40000000       0.46666667       0.06666667 </v>
   <v>       0.40000000       0.26666667       0.13333333 </v>
   <v>       0.46666667       0.26666667       0.13333333 </v>
   <v>      -0.46666667       0.26666667       0.13333333 </v>
   <v>      -0.40000000       0.26666667       0.13333333 </v>
   <v>       0.46666667       0.33333333       0.13333333 </v>
   <v>      -0.46666667       0.33333333       0.13333333 </v>
   <v>      -0.40000000       0.33333333       0.13333333 </v>
   <v>      -0.33333333       0.33333333       0.13333333 </v>
   <v>      -0.26666667       0.33333333       0.13333333 </v>
   <v>      -0.20000000       0.33333333       0.13333333 </v>
   <v>      -0.46666667       0.40000000       0.13333333 </v>
   <v>      -0.40000000       0.40000000       0.13333333 </v>
   <v>      -0.33333333       0.40000000       0.13333333 </v>
   <v>      -0.26666667       0.40000000       0.13333333 </v>
   <v>      -0.40000000       0.46666667       0.13333333 </v>
   <v>      -0.33333333       0.46666667       0.13333333 </v>
   <v>      -0.40000000       0.40000000       0.20000000 </v>
   <v>      -0.33333333       0.40000000       0.20000000 </v>
   <v>      -0.33333333       0.46666667       0.20000000 </v>
   <v>      -0.26666667       0.46666667       0.20000000 </v>
  </varray>
  <varray name="weights" >
   <v>       0.00029630 </v>
   <v>       0.00237037 </v>
   <v>       0.00237037 </v>
   <v>       0.00237037 </v>
   <v>       0.00237037 </v>
   <v>       0.00237037 </v>
   <v>       0.00237037 </v>
   <v>       0.00237037 </v>
   <v>       0.00177778 </v>
   <v>       0.00711111 </v>
   <v>       0.00711111 </v>
   <v>       0.00711111 </v>
   <v>       0.00711111 </v>
   <v>       0.00711111 </v>
   <v>       0.00711111 </v>
   <v>       0.00711111 </v>
   <v>       0.00711111 </v>
   <v>       0.00711111 </v>
   <v>       0.00711111 </v>
   <v>       0.00711111 </v>
   <v>       0.00711111 </v>
   <v>       0.00355556 </v>
   <v>       0.00177778 </v>
   <v>       0.00711111 </v>
   <v>       0.00711111 </v>
   <v>       0.00711111 </v>
   <v>       0.00711111 </v>
   <v>       0.00711111 </v>
   <v>       0.00711111 </v>
   <v>       0.00711111 </v>
   <v>       0.00711111 </v>
   <v>       0.00711111 </v>
   <v>       0.00711111 </v>
   <v>       0.00355556 </v>
   <v>       0.00177778 </v>
   <v>       0.00711111 </v>
   <v>       0.00711111 </v>
   <v>       0.00711111 </v>
   <v>       0.00711111 </v>
   <v>       0.00711111 </v>
   <v>       0.00711111 </v>
   <v>       0.00711111 </v>
   <v>       0.00711111 </v>
   <v>       0.00355556 </v>
   <v>       0.00177778 </v>
   <v>       0.00711111 </v>
   <v>       0.00711111 </v>
   <v>       0.00711111 </v>
   <v>       0.00711111 </v>
   <v>       0.00711111 </v>
   <v>       0.00711111 </v>
   <v>       0.00355556 </v>
   <v>       0.00177778 </v>
   <v>       0.00711111 </v>
   <v>       0.00711111 </v>
   <v>       0.00711111 </v>
   <v>       0.00711111 </v>
   <v>       0.00355556 </v>
   <v>       0.00177778 </v>
   <v>       0.00711111 </v>
   <v>       0.00711111 </v>
   <v>       0.00355556 </v>
   <v>       0.00177778 </v>
   <v>       0.00355556 </v>
   <v>       0.00711111 </v>
   <v>       0.01422222 </v>
   <v>       0.01422222 </v>
   <v>       0.01422222 </v>
   <v>       0.01422222 </v>
   <v>       0.01422222 </v>
   <v>       0.00711111 </v>
   <v>       0.01422222 </v>
   <v>       0.01422222 </v>
   <v>       0.01422222 </v>
   <v>       0.01422222 </v>
   <v>       0.01422222 </v>
   <v>       0.01422222 </v>
   <v>       0.01422222 </v>
   <v>       0.01422222 </v>
   <v>       0.00711111 </v>
   <v>       0.00711111 </v>
   <v>       0.01422222 </v>
   <v>       0.01422222 </v>
   <v>       0.01422222 </v>
   <v>       0.01422222 </v>
   <v>       0.01422222 </v>
   <v>       0.01422222 </v>
   <v>       0.00711111 </v>
   <v>       0.00711111 </v>
   <v>       0.01422222 </v>
   <v>       0.01422222 </v>
   <v>       0.01422222 </v>
   <v>       0.01422222 </v>
   <v>       0.00711111 </v>
   <v>       0.00711111 </v>
   <v>       0.01422222 </v>
   <v>       0.01422222 </v>
   <v>       0.00711111 </v>
   <v>       0.00711111 </v>
   <v>       0.00711111 </v>
   <v>       0.00711111 </v>
   <v>       0.01422222 </v>
   <v>       0.01422222 </v>
   <v>       0.01422222 </v>
   <v>       0.00711111 </v>
   <v>       0.01422222 </v>
   <v>       0.01422222 </v>
   <v>       0.01422222 </v>
   <v>       0.01422222 </v>
   <v>       0.00711111 </v>
   <v>       0.00711111 </v>
   <v>       0.01422222 </v>
   <v>       0.01422222 </v>
   <v>       0.00711111 </v>
   <v>       0.00711111 </v>
   <v>       0.00711111 </v>
   <v>       0.00711111 </v>
   <v>       0.01422222 </v>
   <v>       0.00711111 </v>
   <v>       0.00711111 </v>
  </varray>
 </kpoints>
 <parameters>
  <separator name="general" >
   <i type="string" name="SYSTEM">r-GeO2 ENCUT convergence test</i>
   <i type="logical" name="LCOMPAT"> F  </i>
  </separator>
  <separator name="electronic" >
   <i type="string" name="PREC">accura</i>
   <i name="ENMAX">    500.00000000</i>
   <i name="ENAUG">    644.87300000</i>
   <i name="EDIFF">      0.00010000</i>
   <i type="int" name="IALGO">    38</i>
   <i type="int" name="IWAVPR">    10</i>
   <i type="int" name="NBANDS">     8</i>
   <i name="NELECT">      8.00000000</i>
   <i type="int" name="TURBO">     0</i>
   <i type="int" name="IRESTART">     0</i>
   <i type="int" name="NREBOOT">     0</i>
   <i type="int" name="NMIN">     0</i>
   <i name="EREF">      0.00000000</i>
   <separator name="electronic smearing" >
    <i type="int" name="ISMEAR">     0</i>
    <i name="SIGMA">      0.05000000</i>
    <i name="KSPACING">      0.50000000</i>
    <i type="logical" name="KGAMMA"> T  </i>
   </separator>
   <separator name="electronic projectors" >
    <i type="logical" name="LREAL"> F  </i>
    <v name="ROPT">      0.00000000</v>
    <i type="int" name="LMAXPAW">  -100</i>
    <i type="int" name="LMAXMIX">     2</i>
    <i type="logical" name="NLSPLINE"> F  </i>
   </separator>
   <separator name="electronic startup" >
    <i type="int" name="ISTART">     0</i>
    <i type="int" name="ICHARG">     2</i>
    <i type="int" name="INIWAV">     1</i>
   </separator>
   <separator name="electronic spin" >
    <i type="int" name="ISPIN">     1</i>
    <i type="logical" name="LNONCOLLINEAR"> F  </i>
    <v name="MAGMOM">      1.00000000      1.00000000</v>
    <i name="NUPDOWN">     -1.00000000</i>
    <i type="logical" name="LSORBIT"> F  </i>
    <v name="SAXIS">      0.00000000      0.00000000      1.00000000</v>
    <i type="logical" name="LSPIRAL"> F  </i>
    <v name="QSPIRAL">      0.00000000      0.00000000      0.00000000</v>
    <i type="logical" name="LZEROZ"> F  </i>
   </separator>
   <separator name="electronic exchange-correlation" >
    <i type="logical" name="LASPH"> T  </i>
    <i type="logical" name="LMETAGGA"> F  </i>
   </separator>
   <separator name="electronic convergence" >
    <i type="int" name="NELM">    60</i>
    <i type="int" name="NELMDL">    -5</i>
    <i type="int" name="NELMIN">     2</i>
    <i name="ENINI">    500.00000000</i>
    <separator name="electronic convergence detail" >
     <i type="logical" name="LDIAG"> T  </i>
     <i type="logical" name="LSUBROT"> F  </i>
     <i name="WEIMIN">      0.00000000</i>
     <i name="EBREAK">      0.00000313</i>
     <i name="DEPER">      0.30000000</i>
     <i type="int" name="NRMM">     4</i>
     <i name="TIME">      0.40000000</i>
    </separator>
   </separator>
   <separator name="electronic mixer" >
    <i name="AMIX">      0.40000000</i>
    <i name="BMIX">      1.00000000</i>
    <i name="AMIN">      0.10000000</i>
    <i name="AMIX_MAG">      1.60000000</i>
    <i name="BMIX_MAG">      1.00000000</i>
    <separator name="electronic mixer details" >
     <i type="int" name="IMIX">     4</i>
     <i type="logical" name="MIXFIRST"> F  </i>
     <i type="int" name="MAXMIX">   -45</i>
     <i name="WC">    100.00000000</i>
     <i type="int" name="INIMIX">     1</i>
     <i type="int" name="MIXPRE">     1</i>
     <i type="int" name="MREMOVE">     5</i>
    </separator>
   </separator>
   <separator name="electronic dipolcorrection" >
    <i type="logical" name="LDIPOL"> F  </i>
    <i type="logical" name="LMONO"> F  </i>
    <i type="int" name="IDIPOL">     0</i>
    <i name="EPSILON">      1.00000000</i>
    <v name="DIPOL">   -100.00000000   -100.00000000   -100.00000000</v>
    <i name="EFIELD">      0.00000000</i>
   </separator>
  </separator>
  <separator name="grids" >
   <i type="int" name="NGX">    18</i>
   <i type="int" name="NGY">    18</i>
   <i type="int" name="NGZ">    18</i>
   <i type="int" name="NGXF">    36</i>
   <i type="int" name="NGYF">    36</i>
   <i type="int" name="NGZF">    36</i>
   <i type="logical" name="ADDGRID"> F  </i>
  </separator>
  <separator name="ionic" >
   <i type="int" name="NSW">     0</i>
   <i type="int" name="IBRION">    -1</i>
   <i type="int" name="MDALGO">     0</i>
   <i type="int" name="ISIF">     2</i>
   <i name="PSTRESS">      0.00000000</i>
   <i name="EDIFFG">      0.00100000</i>
   <i type="int" name="NFREE">     0</i>
   <i name="POTIM">      0.50000000</i>
   <i name="SMASS">     -3.00000000</i>
   <i name="SCALEE">      1.00000000</i>
  </separator>
  <separator name="ionic md" >
   <i name="TEBEG">      0.00010000</i>
   <i name="TEEND">      0.00010000</i>
   <i type="int" name="NBLOCK">     1</i>
   <i type="int" name="KBLOCK">     1</i>
   <i type="int" name="NPACO">   256</i>
   <i name="APACO">     16.00000000</i>
  </separator>
  <separator name="symmetry" >
   <i type="int" name="ISYM">     2</i>
   <i name="SYMPREC">      0.00001000</i>
  </separator>
  <separator name="dos" >
   <i type="int" name="LORBIT">    11</i>
   <v name="RWIGS">     -1.00000000</v>
   <i type="int" name="NEDOS">   301</i>
   <i name="EMIN">     10.00000000</i>
   <i name="EMAX">    -10.00000000</i>
   <i name="EFERMI">      0.00000000</i>
  </separator>
  <separator name="writing" >
   <i type="int" name="NWRITE">     2</i>
   <i type="logical" name="LWAVE"> F  </i>
   <i type="logical" name="LDOWNSAMPLE"> F  </i>
   <i type="logical" name="LCHARG"> F  </i>
   <i type="logical" name="LPARD"> F  </i>
   <i type="logical" name="LVTOT"> F  </i>
   <i type="logical" name="LVHAR"> F  </i>
   <i type="logical" name="LELF"> F  </i>
   <i type="logical" name="LOPTICS"> F  </i>
   <v name="STM">      0.00000000      0.00000000      0.00000000      0.00000000      0.00000000      0.00000000      0.00000000</v>
  </separator>
  <separator name="performance" >
   <i type="int" name="NPAR">     2</i>
   <i type="int" name="NSIM">     4</i>
   <i type="int" name="NBLK">    -1</i>
   <i type="logical" name="LPLANE"> T  </i>
   <i type="logical" name="LSCALAPACK"> T  </i>
   <i type="logical" name="LSCAAWARE"> F  </i>
   <i type="logical" name="LSCALU"> F  </i>
   <i type="logical" name="LASYNC"> F  </i>
   <i type="logical" name="LORBITALREAL"> F  </i>
  </separator>
  <separator name="miscellaneous" >
   <i type="int" name="IDIOT">     3</i>
   <i type="int" name="ISPECIAL">     0</i>
   <i type="logical" name="LMUSIC"> F  </i>
   <v name="POMASS">     12.01100000</v>
   <v name="DARWINR">      0.00000000</v>
   <v name="DARWINV">      1.00000000</v>
   <i type="logical" name="LCORR"> T  </i>
  </separator>
  <i type="logical" name="GGA_COMPAT"> T  </i>
  <i type="logical" name="LBERRY"> F  </i>
  <i type="int" name="ICORELEVEL">     0</i>
  <i type="logical" name="LDAU"> F  </i>
  <i type="int" name="I_CONSTRAINED_M">     0</i>
  <separator name="electronic exchange-correlation" >
   <i type="string" name="GGA">--</i>
   <i type="int" name="VOSKOWN">     0</i>
   <i type="logical" name="LHFCALC"> F  </i>
   <i type="string" name="PRECFOCK"></i>
   <i type="logical" name="LSYMGRAD"> F  </i>
   <i type="logical" name="LHFONE"> F  </i>
   <i type="logical" name="LRHFCALC"> F  </i>
   <i type="logical" name="LTHOMAS"> F  </i>
   <i type="logical" name="LMODELHF"> F  </i>
   <i name="ENCUT4O">     -1.00000000</i>
   <i type="int" name="EXXOEP">     0</i>
   <i type="int" name="FOURORBIT">     0</i>
   <i name="AEXX">      0.00000000</i>
   <i name="HFALPHA">      0.00000000</i>
   <i name="MCALPHA">      0.00000000</i>
   <i name="ALDAX">      1.00000000</i>
   <i name="AGGAX">      1.00000000</i>
   <i name="ALDAC">      1.00000000</i>
   <i name="AGGAC">      1.00000000</i>
   <i type="int" name="NKREDX">     1</i>
   <i type="int" name="NKREDY">     1</i>
   <i type="int" name="NKREDZ">     1</i>
   <i type="logical" name="SHIFTRED"> F  </i>
   <i type="logical" name="ODDONLY"> F  </i>
   <i type="logical" name="EVENONLY"> F  </i>
   <i type="int" name="LMAXFOCK">     0</i>
   <i type="int" name="NMAXFOCKAE">     0</i>
   <i type="logical" name="LFOCKAEDFT"> F  </i>
   <i name="HFSCREEN">      0.00000000</i>
   <i name="HFSCREENC">      0.00000000</i>
   <i type="int" name="NBANDSGWLOW">     0</i>
  </separator>
  <separator name="vdW DFT" >
   <i type="logical" name="LUSE_VDW"> F  </i>
   <i name="Zab_VDW">     -0.84910000</i>
   <i name="PARAM1">      0.12340000</i>
   <i name="PARAM2">      1.00000000</i>
   <i name="PARAM3">      0.00000000</i>
  </separator>
  <separator name="model GW" >
   <i type="int" name="MODEL_GW">     0</i>
   <i name="MODEL_EPS0">      3.38597637</i>
   <i name="MODEL_ALPHA">      1.00000000</i>
  </separator>
  <separator name="linear response parameters" >
   <i type="logical" name="LEPSILON"> F  </i>
   <i type="logical" name="LRPA"> F  </i>
   <i type="logical" name="LNABLA"> F  </i>
   <i type="logical" name="LVEL"> F  </i>
   <i type="int" name="KINTER">     0</i>
   <i name="CSHIFT">      0.10000000</i>
   <i name="OMEGAMAX">     -1.00000000</i>
   <i name="DEG_THRESHOLD">      0.00200000</i>
   <i name="RTIME">     -0.10000000</i>
   <i name="WPLASMAI">      0.00000000</i>
   <v name="DFIELD">      0.00000000      0.00000000      0.00000000</v>
   <v name="WPLASMA">      0.00000000      0.00000000      0.00000000      0.00000000      0.00000000      0.00000000      0.00000000      0.00000000      0.00000000</v>
  </separator>
  <separator name="orbital magnetization" >
   <i type="logical" name="NUCIND"> F  </i>
   <v name="MAGPOS">      0.00000000      0.00000000      0.00000000</v>
   <i type="logical" name="LNICSALL"> T  </i>
   <i type="logical" name="ORBITALMAG"> F  </i>
   <i type="logical" name="LMAGBLOCH"> F  </i>
   <i type="logical" name="LCHIMAG"> F  </i>
   <i type="logical" name="LGAUGE"> T  </i>
   <i type="int" name="MAGATOM">     0</i>
   <v name="MAGDIPOL">      0.00000000      0.00000000      0.00000000</v>
   <v name="AVECCONST">      0.00000000      0.00000000      0.00000000</v>
  </separator>
  <separator name="response functions" >
   <i type="logical" name="LADDER"> F  </i>
   <i type="logical" name="LRPAFORCE"> F  </i>
   <i type="logical" name="LFXC"> F  </i>
   <i type="logical" name="LHARTREE"> T  </i>
   <i type="int" name="IBSE">     0</i>
   <v type="int" name="KPOINT">    -1     0     0     0</v>
   <i type="logical" name="LTCTE"> F  </i>
   <i type="logical" name="LTETE"> F  </i>
   <i type="logical" name="LTRIPLET"> F  </i>
   <i type="logical" name="LFXCEPS"> F  </i>
   <i type="logical" name="LFXHEG"> F  </i>
   <i type="int" name="NATURALO">     2</i>
   <i type="logical" name="L2ORDER"> F  </i>
   <i type="logical" name="LMP2LT"> F  </i>
   <i type="logical" name="LUSEW"> F  </i>
   <i name="ENCUTGW">     -2.00000000</i>
   <i name="ENCUTGWSOFT">     -2.00000000</i>
   <i name="ENCUTLF">     -1.00000000</i>
   <i type="int" name="LMAXMP2">    -1</i>
   <i name="SCISSOR">      0.00000000</i>
   <i type="int" name="NOMEGA">     0</i>
   <i type="int" name="NOMEGAR">     0</i>
   <i type="int" name="NBANDSGW">    -1</i>
   <i type="int" name="NBANDSO">    -1</i>
   <i type="int" name="NBANDSV">    -1</i>
   <i type="int" name="NELM">     1</i>
   <i type="int" name="NELMHF">     1</i>
   <i type="int" name="DIM">     3</i>
   <i type="int" name="ANTIRES">     0</i>
   <i name="OMEGAMAX">    -30.00000000</i>
   <i name="OMEGAMIN">    -30.00000000</i>
   <i name="OMEGATL">   -200.00000000</i>
   <i type="int" name="OMEGAGRID">   140</i>
   <i name="CSHIFT">     -0.10000000</i>
   <i type="logical" name="SELFENERGY"> F  </i>
   <i type="logical" name="LSPECTRAL"> F  </i>
   <i type="logical" name="LSPECTRALGW"> F  </i>
   <i type="logical" name="LSINGLES"> F  </i>
   <i type="logical" name="LFERMIGW"> F  </i>
   <i type="logical" name="ODDONLYGW"> F  </i>
   <i type="logical" name="EVENONLYGW"> F  </i>
   <i type="int" name="NKREDLFX">     1</i>
   <i type="int" name="NKREDLFY">     1</i>
   <i type="int" name="NKREDLFZ">     1</i>
   <i type="int" name="MAXMEM">  2800</i>
   <i type="int" name="TELESCOPE">     0</i>
   <i type="int" name="TAUPAR">     1</i>
   <i type="int" name="OMEGAPAR">    -1</i>
   <i name="LAMBDA">      1.00000000</i>
  </separator>
  <separator name="External order field" >
   <i name="OFIELD_KAPPA">      0.00000000</i>
   <v name="OFIELD_K">      0.00000000      0.00000000      0.00000000</v>
   <i name="OFIELD_Q6_NEAR">      0.00000000</i>
   <i name="OFIELD_Q6_FAR">      0.00000000</i>
   <i name="OFIELD_A">      0.00000000</i>
  </separator>
 </parameters>
 <atominfo>
  <atoms>       2 </atoms>
  <types>       1 </types>
  <array name="atoms" >
   <dimension dim="1">ion</dimension>
   <field type="string">element</field>
   <field type="int">atomtype</field>
   <set>
    <rc><c>C </c><c>   1</c></rc>
    <rc><c>C </c><c>   1</c></rc>
   </set>
  </array>
  <array name="atomtypes" >
   <dimension dim="1">type</dimension>
   <field type="int">atomspertype</field>
   <field type="string">element</field>
   <field>mass</field>
   <field>valence</field>
   <field type="string">pseudopotential</field>
   <set>
    <rc><c>   2</c><c>C </c><c>     12.01100000</c><c>      4.00000000</c><c>  PAW_PBE C 08Apr2002                   </c></rc>
   </set>
  </array>
 </atominfo>
 <structure name="initialpos" >
  <crystal>
   <varray name="basis" >
    <v>       2.18050236       0.00000000       1.25891346 </v>
    <v>       0.72683412       2.05579703       1.25891346 </v>
    <v>       0.00000000       0.00000000       2.51782692 </v>
   </varray>
   <i name="volume">     11.28658789 </i>
   <varray name="rec_basis" >
    <v>       0.45860991      -0.16214311       0.00000000 </v>
    <v>       0.00000000       0.48642934       0.00000000 </v>
    <v>      -0.22930496      -0.16214311       0.39716789 </v>
   </varray>
  </crystal>
  <varray name="positions" >
   <v>       0.87500000       0.87500000       0.87500000 </v>
   <v>       0.12500000       0.12500000       0.12500000 </v>
  </varray>
 </structure>
 <calculation>
  <scstep>
   <time name="dav">    0.18    0.18</time>
   <time name="total">    0.21    0.21</time>
   <energy>
    <i name="alphaZ">      3.94380917 </i>
    <i name="ewald">   -348.55062700 </i>
    <i name="hartreedc">    -17.50286058 </i>
    <i name="XCdc">     27.43730065 </i>
    <i name="pawpsdc">    217.04409276 </i>
    <i name="pawaedc">   -218.18290438 </i>
    <i name="eentropy">     -0.00000682 </i>
    <i name="bandstr">      5.22983893 </i>
    <i name="atom">    294.29684335 </i>
    <i name="e_fr_energy">    -36.28451392 </i>
    <i name="e_wo_entrp">    -36.28450710 </i>
    <i name="e_0_energy">    -36.28451051 </i>
   </energy>
  </scstep>
  <scstep>
   <time name="dav">    0.26    0.26</time>
   <time name="total">    0.26    0.26</time>
   <energy>
    <i name="e_fr_energy">    -50.28633569 </i>
    <i name="e_wo_entrp">    -50.28633569 </i>
    <i name="e_0_energy">    -50.28633569 </i>
   </energy>
  </scstep>
  <scstep>
   <time name="dav">    0.17    0.17</time>
   <time name="total">    0.17    0.17</time>
   <energy>
    <i name="e_fr_energy">    -50.36168766 </i>
    <i name="e_wo_entrp">    -50.36168766 </i>
    <i name="e_0_energy">    -50.36168766 </i>
   </energy>
  </scstep>
  <scstep>
   <time name="dav">    0.22    0.22</time>
   <time name="total">    0.22    0.22</time>
   <energy>
    <i name="e_fr_energy">    -50.36181029 </i>
    <i name="e_wo_entrp">    -50.36181029 </i>
    <i name="e_0_energy">    -50.36181029 </i>
   </energy>
  </scstep>
  <scstep>
   <time name="dav">    0.16    0.16</time>
   <time name="total">    0.17    0.17</time>
   <energy>
    <i name="e_fr_energy">    -50.36181035 </i>
    <i name="e_wo_entrp">    -50.36181035 </i>
    <i name="e_0_energy">    -50.36181035 </i>
   </energy>
  </scstep>
  <scstep>
   <time name="dav">    0.17    0.17</time>
   <time name="total">    0.21    0.21</time>
   <energy>
    <i name="e_fr_energy">    -49.71657467 </i>
    <i name="e_wo_entrp">    -49.71657467 </i>
    <i name="e_0_energy">    -49.71657467 </i>
   </energy>
  </scstep>
  <scstep>
   <time name="dav">    0.20    0.20</time>
   <time name="total">    0.24    0.24</time>
   <energy>
    <i name="e_fr_energy">    -49.49845748 </i>
    <i name="e_wo_entrp">    -49.49845748 </i>
    <i name="e_0_energy">    -49.49845748 </i>
   </energy>
  </scstep>
  <scstep>
   <time name="dav">    0.18    0.18</time>
   <time name="total">    0.22    0.22</time>
   <energy>
    <i name="e_fr_energy">    -49.50140340 </i>
    <i name="e_wo_entrp">    -49.50140340 </i>
    <i name="e_0_energy">    -49.50140340 </i>
   </energy>
  </scstep>
  <scstep>
   <time name="dav">    0.22    0.22</time>
   <time name="total">    0.26    0.26</time>
   <energy>
    <i name="alphaZ">      3.94380917 </i>
    <i name="ewald">   -348.55062700 </i>
    <i name="hartreedc">    -28.19083991 </i>
    <i name="XCdc">     28.42132555 </i>
    <i name="pawpsdc">    866.04483603 </i>
    <i name="pawaedc">   -867.38707958 </i>
    <i name="eentropy">     -0.00000000 </i>
    <i name="bandstr">      1.92028267 </i>
    <i name="atom">    294.29684335 </i>
    <i name="e_fr_energy">    -49.50144973 </i>
    <i name="e_wo_entrp">    -49.50144973 </i>
    <i name="e_0_energy">    -49.50144973 </i>
   </energy>
  </scstep>
  <structure>
   <crystal>
    <varray name="basis" >
     <v>       2.18050236       0.00000000       1.25891346 </v>
     <v>       0.72683412       2.05579703       1.25891346 </v>
     <v>       0.00000000       0.00000000       2.51782692 </v>
    </varray>
    <i name="volume">     11.28658789 </i>
    <varray name="rec_basis" >
     <v>       0.45860991      -0.16214311       0.00000000 </v>
     <v>       0.00000000       0.48642934       0.00000000 </v>
     <v>      -0.22930496      -0.16214311       0.39716789 </v>
    </varray>
   </crystal>
   <varray name="positions" >
    <v>       0.87500000       0.87500000       0.87500000 </v>
    <v>       0.12500000       0.12500000       0.12500000 </v>
   </varray>
  </structure>
  <varray name="forces" >
   <v>       0.00000000       0.00000000       0.00000000 </v>
   <v>      -0.00000000      -0.00000000      -0.00000000 </v>
  </varray>
  <varray name="stress" >
   <v>   -2805.29467374       0.00000000      -0.00000000 </v>
   <v>       0.00000000   -2805.29382715      -0.00000000 </v>
   <v>      -0.00000000      -0.00000000   -2805.29394054 </v>
  </varray>
  <energy>
   <i name="e_fr_energy">    -49.50144973 </i>
   <i name="e_wo_entrp">    -49.50144973 </i>
   <i name="e_0_energy">     -0.00000000 </i>
  </energy>
  <time name="totalsc">    2.08    2.08</time>
  <eigenvalues>
   <array>
    <dimension dim="1">band</dimension>
    <dimension dim="2">kpoint</dimension>
    <dimension dim="3">spin</dimension>
    <field>eigene</field>
    <field>occ</field>
    <set>
     <set comment="spin 1">
      <set comment="kpoint 1">
       <r>  -12.1298    1.0000 </r>
       <r>    9.0221    1.0000 </r>
       <r>    9.0221    1.0000 </r>
       <r>    9.0221    1.0000 </r>
       <r>   15.0616    0.0000 </r>
       <r>   15.0616    0.0000 </r>
       <r>   15.0616    0.0000 </r>
       <r>   23.0392    0.0000 </r>
      </set>
      <set comment="kpoint 2">
       <r>  -12.0082    1.0000 </r>
       <r>    8.2422    1.0000 </r>
       <r>    8.8203    1.0000 </r>
       <r>    8.8203    1.0000 </r>
       <r>   15.3319    0.0000 </r>
       <r>   15.3319    0.0000 </r>
       <r>   15.5431    0.0000 </r>
       <r>   23.1501    0.0000 </r>
      </set>
      <set comment="kpoint 3">
       <r>  -11.6446    1.0000 </r>
       <r>    6.4590    1.0000 </r>
       <r>    8.3298    1.0000 </r>
       <r>    8.3298    1.0000 </r>
       <r>   15.9945    0.0000 </r>
       <r>   15.9945    0.0000 </r>
       <r>   16.4581    0.0000 </r>
       <r>   23.4808    0.0000 </r>
      </set>
      <set comment="kpoint 4">
       <r>  -11.0425    1.0000 </r>
       <r>    4.3093    1.0000 </r>
       <r>    7.7464    1.0000 </r>
       <r>    7.7464    1.0000 </r>
       <r>   16.7638    0.0000 </r>
       <r>   16.7638    0.0000 </r>
       <r>   17.2591    0.0000 </r>
       <r>   24.0037    0.0000 </r>
      </set>
      <set comment="kpoint 5">
       <r>  -10.2097    1.0000 </r>
       <r>    2.0804    1.0000 </r>
       <r>    7.2005    1.0000 </r>
       <r>    7.2005    1.0000 </r>
       <r>   17.4036    0.0000 </r>
       <r>   17.4036    0.0000 </r>
       <r>   17.8169    0.0000 </r>
       <r>   24.6354    0.0000 </r>
      </set>
      <set comment="kpoint 6">
       <r>   -9.1630    1.0000 </r>
       <r>   -0.0840    1.0000 </r>
       <r>    6.7587    1.0000 </r>
       <r>    6.7587    1.0000 </r>
       <r>   17.8000    0.0000 </r>
       <r>   17.8000    0.0000 </r>
       <r>   18.1672    0.0000 </r>
       <r>   25.2425    0.0000 </r>
      </set>
      <set comment="kpoint 7">
       <r>   -7.9499    1.0000 </r>
       <r>   -2.0704    1.0000 </r>
       <r>    6.4527    1.0000 </r>
       <r>    6.4527    1.0000 </r>
       <r>   17.9799    0.0000 </r>
       <r>   17.9799    0.0000 </r>
       <r>   18.3687    0.0000 </r>
       <r>   25.6866    0.0000 </r>
      </set>
      <set comment="kpoint 8">
       <r>   -6.7929    1.0000 </r>
       <r>   -3.6218    1.0000 </r>
       <r>    6.2970    1.0000 </r>
       <r>    6.2970    1.0000 </r>
       <r>   18.0356    0.0000 </r>
       <r>   18.0356    0.0000 </r>
       <r>   18.4607    0.0000 </r>
       <r>   25.9094    0.0000 </r>
      </set>
      <set comment="kpoint 9">
       <r>  -11.9677    1.0000 </r>
       <r>    8.4413    1.0000 </r>
       <r>    8.4413    1.0000 </r>
       <r>    8.6278    1.0000 </r>
       <r>   14.9592    0.0000 </r>
       <r>   15.7917    0.0000 </r>
       <r>   15.7917    0.0000 </r>
       <r>   23.1504    0.0000 </r>
      </set>
      <set comment="kpoint 10">
       <r>  -11.6849    1.0000 </r>
       <r>    7.0534    1.0000 </r>
       <r>    7.8564    1.0000 </r>
       <r>    8.4234    1.0000 </r>
       <r>   15.1571    0.0000 </r>
       <r>   16.5738    0.0000 </r>
       <r>   16.6340    0.0000 </r>
       <r>   23.2958    0.0000 </r>
      </set>
      <set comment="kpoint 11">
       <r>  -11.1622    1.0000 </r>
       <r>    5.0467    1.0000 </r>
       <r>    7.2460    1.0000 </r>
       <r>    7.9721    1.0000 </r>
       <r>   15.7817    0.0000 </r>
       <r>   17.4132    0.0000 </r>
       <r>   17.4804    0.0000 </r>
       <r>   23.5740    0.0000 </r>
      </set>
      <set comment="kpoint 12">
       <r>  -10.4060    1.0000 </r>
       <r>    2.8633    1.0000 </r>
       <r>    6.7176    1.0000 </r>
       <r>    7.3970    1.0000 </r>
       <r>   16.5155    0.0000 </r>
       <r>   18.0888    0.0000 </r>
       <r>   18.1038    0.0000 </r>
       <r>   23.9816    0.0000 </r>
      </set>
      <set comment="kpoint 13">
       <r>   -9.4293    1.0000 </r>
       <r>    0.6890    1.0000 </r>
       <r>    6.3251    1.0000 </r>
       <r>    6.8328    1.0000 </r>
       <r>   17.1135    0.0000 </r>
       <r>   18.4769    0.0000 </r>
       <r>   18.5042    0.0000 </r>
       <r>   24.5334    0.0000 </r>
      </set>
      <set comment="kpoint 14">
       <r>   -8.2642    1.0000 </r>
       <r>   -1.3562    1.0000 </r>
       <r>    6.0930    1.0000 </r>
       <r>    6.3528    1.0000 </r>
       <r>   17.5024    0.0000 </r>
       <r>   18.5869    0.0000 </r>
       <r>   18.7384    0.0000 </r>
       <r>   25.1588    0.0000 </r>
      </set>
      <set comment="kpoint 15">
       <r>   -7.0352    1.0000 </r>
       <r>   -3.1018    1.0000 </r>
       <r>    5.9965    1.0000 </r>
       <r>    6.0296    1.0000 </r>
       <r>   17.7481    0.0000 </r>
       <r>   18.5151    0.0000 </r>
       <r>   18.8542    0.0000 </r>
       <r>   25.6590    0.0000 </r>
      </set>
      <set comment="kpoint 16">
       <r>   -6.4851    1.0000 </r>
       <r>   -3.7821    1.0000 </r>
       <r>    5.7865    1.0000 </r>
       <r>    6.1331    1.0000 </r>
       <r>   17.9378    0.0000 </r>
       <r>   18.3537    0.0000 </r>
       <r>   18.8764    0.0000 </r>
       <r>   25.8385    0.0000 </r>
      </set>
      <set comment="kpoint 17">
       <r>   -7.4330    1.0000 </r>
       <r>   -2.5727    1.0000 </r>
       <r>    5.7369    1.0000 </r>
       <r>    6.3945    1.0000 </r>
       <r>   18.0972    0.0000 </r>
       <r>   18.1333    0.0000 </r>
       <r>   18.8091    0.0000 </r>
       <r>   25.6401    0.0000 </r>
      </set>
      <set comment="kpoint 18">
       <r>   -8.6700    1.0000 </r>
       <r>   -0.6932    1.0000 </r>
       <r>    5.8548    1.0000 </r>
       <r>    6.7973    1.0000 </r>
       <r>   17.8150    0.0000 </r>
       <r>   18.1731    0.0000 </r>
       <r>   18.6309    0.0000 </r>
       <r>   25.1405    0.0000 </r>
      </set>
      <set comment="kpoint 19">
       <r>   -9.7783    1.0000 </r>
       <r>    1.4089    1.0000 </r>
       <r>    6.1402    1.0000 </r>
       <r>    7.3138    1.0000 </r>
       <r>   17.3284    0.0000 </r>
       <r>   18.0658    0.0000 </r>
       <r>   18.2830    0.0000 </r>
       <r>   24.5323    0.0000 </r>
      </set>
      <set comment="kpoint 20">
       <r>  -10.6836    1.0000 </r>
       <r>    3.6007    1.0000 </r>
       <r>    6.5830    1.0000 </r>
       <r>    7.8950    1.0000 </r>
       <r>   16.6580    0.0000 </r>
       <r>   17.6350    0.0000 </r>
       <r>   17.7538    0.0000 </r>
       <r>   23.9934    0.0000 </r>
      </set>
      <set comment="kpoint 21">
       <r>  -11.3628    1.0000 </r>
       <r>    5.7425    1.0000 </r>
       <r>    7.1593    1.0000 </r>
       <r>    8.4493    1.0000 </r>
       <r>   15.9273    0.0000 </r>
       <r>   16.8234    0.0000 </r>
       <r>   17.1012    0.0000 </r>
       <r>   23.5816    0.0000 </r>
      </set>
      <set comment="kpoint 22">
       <r>  -11.8060    1.0000 </r>
       <r>    7.5029    1.0000 </r>
       <r>    7.8990    1.0000 </r>
       <r>    8.8173    1.0000 </r>
       <r>   15.3954    0.0000 </r>
       <r>   15.9628    0.0000 </r>
       <r>   16.2479    0.0000 </r>
       <r>   23.2969    0.0000 </r>
      </set>
      <set comment="kpoint 23">
       <r>  -11.4831    1.0000 </r>
       <r>    7.2181    1.0000 </r>
       <r>    7.2181    1.0000 </r>
       <r>    7.5416    1.0000 </r>
       <r>   14.6957    0.0000 </r>
       <r>   17.4553    0.0000 </r>
       <r>   17.4553    0.0000 </r>
       <r>   23.0396    0.0000 </r>
      </set>
      <set comment="kpoint 24">
       <r>  -11.0412    1.0000 </r>
       <r>    5.6630    1.0000 </r>
       <r>    6.5820    1.0000 </r>
       <r>    7.2678    1.0000 </r>
       <r>   14.8548    0.0000 </r>
       <r>   18.3787    0.0000 </r>
       <r>   18.3933    0.0000 </r>
       <r>   22.7567    0.0000 </r>
      </set>
      <set comment="kpoint 25">
       <r>  -10.3643    1.0000 </r>
       <r>    3.6557    1.0000 </r>
       <r>    6.0476    1.0000 </r>
       <r>    6.7933    1.0000 </r>
       <r>   15.4689    0.0000 </r>
       <r>   19.1052    0.0000 </r>
       <r>   19.1710    0.0000 </r>
       <r>   22.6020    0.0000 </r>
      </set>
      <set comment="kpoint 26">
       <r>   -9.4627    1.0000 </r>
       <r>    1.5568    1.0000 </r>
       <r>    5.6667    1.0000 </r>
       <r>    6.1803    1.0000 </r>
       <r>   16.1778    0.0000 </r>
       <r>   19.5834    0.0000 </r>
       <r>   19.6406    0.0000 </r>
       <r>   22.8151    0.0000 </r>
      </set>
      <set comment="kpoint 27">
       <r>   -8.3600    1.0000 </r>
       <r>   -0.4841    1.0000 </r>
       <r>    5.4638    1.0000 </r>
       <r>    5.5705    1.0000 </r>
       <r>   16.7247    0.0000 </r>
       <r>   19.7752    0.0000 </r>
       <r>   19.8660    0.0000 </r>
       <r>   23.5206    0.0000 </r>
      </set>
      <set comment="kpoint 28">
       <r>   -7.1318    1.0000 </r>
       <r>   -2.3226    1.0000 </r>
       <r>    5.0462    1.0000 </r>
       <r>    5.4467    1.0000 </r>
       <r>   17.0958    0.0000 </r>
       <r>   19.6543    0.0000 </r>
       <r>   20.0109    0.0000 </r>
       <r>   24.5340    0.0000 </r>
      </set>
      <set comment="kpoint 29">
       <r>   -6.1967    1.0000 </r>
       <r>   -3.5040    1.0000 </r>
       <r>    4.6549    1.0000 </r>
       <r>    5.6121    1.0000 </r>
       <r>   17.4024    0.0000 </r>
       <r>   19.3806    0.0000 </r>
       <r>   20.0575    0.0000 </r>
       <r>   25.3745    0.0000 </r>
      </set>
      <set comment="kpoint 30">
       <r>   -6.7435    1.0000 </r>
       <r>   -2.8263    1.0000 </r>
       <r>    4.4258    1.0000 </r>
       <r>    5.9469    1.0000 </r>
       <r>   17.7134    0.0000 </r>
       <r>   19.0090    0.0000 </r>
       <r>   20.0168    0.0000 </r>
       <r>   25.4846    0.0000 </r>
      </set>
      <set comment="kpoint 31">
       <r>   -7.9615    1.0000 </r>
       <r>   -1.1068    1.0000 </r>
       <r>    4.3775    1.0000 </r>
       <r>    6.4267    1.0000 </r>
       <r>   18.0081    0.0000 </r>
       <r>   18.5276    0.0000 </r>
       <r>   19.8615    0.0000 </r>
       <r>   24.8830    0.0000 </r>
      </set>
      <set comment="kpoint 32">
       <r>   -9.1184    1.0000 </r>
       <r>    0.8926    1.0000 </r>
       <r>    4.5227    1.0000 </r>
       <r>    7.0109    1.0000 </r>
       <r>   17.8951    0.0000 </r>
       <r>   18.1897    0.0000 </r>
       <r>   19.4940    0.0000 </r>
       <r>   24.1496    0.0000 </r>
      </set>
      <set comment="kpoint 33">
       <r>  -10.0897    1.0000 </r>
       <r>    2.9718    1.0000 </r>
       <r>    4.8814    1.0000 </r>
       <r>    7.6307    1.0000 </r>
       <r>   17.1284    0.0000 </r>
       <r>   18.1365    0.0000 </r>
       <r>   18.7893    0.0000 </r>
       <r>   23.7215    0.0000 </r>
      </set>
      <set comment="kpoint 34">
       <r>  -10.8424    1.0000 </r>
       <r>    4.7966    1.0000 </r>
       <r>    5.6364    1.0000 </r>
       <r>    8.1682    1.0000 </r>
       <r>   16.3816    0.0000 </r>
       <r>   17.7701    0.0000 </r>
       <r>   17.8101    0.0000 </r>
       <r>   23.6131    0.0000 </r>
      </set>
      <set comment="kpoint 35">
       <r>  -10.6808    1.0000 </r>
       <r>    5.9204    1.0000 </r>
       <r>    5.9204    1.0000 </r>
       <r>    5.9567    1.0000 </r>
       <r>   14.3721    0.0000 </r>
       <r>   19.4621    0.0000 </r>
       <r>   19.4621    0.0000 </r>
       <r>   21.8090    0.0000 </r>
      </set>
      <set comment="kpoint 36">
       <r>  -10.0847    1.0000 </r>
       <r>    4.2479    1.0000 </r>
       <r>    5.3629    1.0000 </r>
       <r>    5.7274    1.0000 </r>
       <r>   14.5455    0.0000 </r>
       <r>   20.3715    0.0000 </r>
       <r>   20.3996    0.0000 </r>
       <r>   21.0625    0.0000 </r>
      </set>
      <set comment="kpoint 37">
       <r>   -9.2616    1.0000 </r>
       <r>    2.3637    1.0000 </r>
       <r>    4.9648    1.0000 </r>
       <r>    5.1598    1.0000 </r>
       <r>   15.1763    0.0000 </r>
       <r>   20.7212    0.0000 </r>
       <r>   21.0317    0.0000 </r>
       <r>   21.0729    0.0000 </r>
      </set>
      <set comment="kpoint 38">
       <r>   -8.2298    1.0000 </r>
       <r>    0.4356    1.0000 </r>
       <r>    4.4605    1.0000 </r>
       <r>    4.7536    1.0000 </r>
       <r>   15.8410    0.0000 </r>
       <r>   21.1132    0.0000 </r>
       <r>   21.2825    0.0000 </r>
       <r>   21.5044    0.0000 </r>
      </set>
      <set comment="kpoint 39">
       <r>   -7.0394    1.0000 </r>
       <r>   -1.3938    1.0000 </r>
       <r>    3.7904    1.0000 </r>
       <r>    4.7396    1.0000 </r>
       <r>   16.3129    0.0000 </r>
       <r>   21.1971    0.0000 </r>
       <r>   21.5271    0.0000 </r>
       <r>   22.4564    0.0000 </r>
      </set>
      <set comment="kpoint 40">
       <r>   -5.9180    1.0000 </r>
       <r>   -2.8390    1.0000 </r>
       <r>    3.2377    1.0000 </r>
       <r>    4.9207    1.0000 </r>
       <r>   16.6799    0.0000 </r>
       <r>   20.8723    0.0000 </r>
       <r>   21.6300    0.0000 </r>
       <r>   23.9509    0.0000 </r>
      </set>
      <set comment="kpoint 41">
       <r>   -5.9344    1.0000 </r>
       <r>   -2.8036    1.0000 </r>
       <r>    2.8516    1.0000 </r>
       <r>    5.2837    1.0000 </r>
       <r>   17.0679    0.0000 </r>
       <r>   20.3783    0.0000 </r>
       <r>   21.6244    0.0000 </r>
       <r>   25.0345    0.0000 </r>
      </set>
      <set comment="kpoint 42">
       <r>   -7.0583    1.0000 </r>
       <r>   -1.3199    1.0000 </r>
       <r>    2.6649    1.0000 </r>
       <r>    5.8017    1.0000 </r>
       <r>   17.5028    0.0000 </r>
       <r>   19.7251    0.0000 </r>
       <r>   21.4922    0.0000 </r>
       <r>   24.7059    0.0000 </r>
      </set>
      <set comment="kpoint 43">
       <r>   -8.2430    1.0000 </r>
       <r>    0.5151    1.0000 </r>
       <r>    2.7222    1.0000 </r>
       <r>    6.4277    1.0000 </r>
       <r>   17.9187    0.0000 </r>
       <r>   18.9011    0.0000 </r>
       <r>   21.0467    0.0000 </r>
       <r>   23.8578    0.0000 </r>
      </set>
      <set comment="kpoint 44">
       <r>   -9.2701    1.0000 </r>
       <r>    2.1768    1.0000 </r>
       <r>    3.2825    1.0000 </r>
       <r>    7.0814    1.0000 </r>
       <r>   17.9699    0.0000 </r>
       <r>   18.1790    0.0000 </r>
       <r>   20.0536    0.0000 </r>
       <r>   23.5411    0.0000 </r>
      </set>
      <set comment="kpoint 45">
       <r>   -9.5701    1.0000 </r>
       <r>    4.0392    1.0000 </r>
       <r>    4.7738    1.0000 </r>
       <r>    4.7738    1.0000 </r>
       <r>   14.0995    0.0000 </r>
       <r>   19.7934    0.0000 </r>
       <r>   21.5452    0.0000 </r>
       <r>   21.5452    0.0000 </r>
      </set>
      <set comment="kpoint 46">
       <r>   -8.8276    1.0000 </r>
       <r>    2.6728    1.0000 </r>
       <r>    4.2542    1.0000 </r>
       <r>    4.3420    1.0000 </r>
       <r>   14.3322    0.0000 </r>
       <r>   19.0415    0.0000 </r>
       <r>   22.4033    0.0000 </r>
       <r>   22.4089    0.0000 </r>
      </set>
      <set comment="kpoint 47">
       <r>   -7.8721    1.0000 </r>
       <r>    1.0804    1.0000 </r>
       <r>    3.4734    1.0000 </r>
       <r>    4.0996    1.0000 </r>
       <r>   14.9850    0.0000 </r>
       <r>   19.0128    0.0000 </r>
       <r>   22.8510    0.0000 </r>
       <r>   22.9488    0.0000 </r>
      </set>
      <set comment="kpoint 48">
       <r>   -6.7391    1.0000 </r>
       <r>   -0.5493    1.0000 </r>
       <r>    2.6188    1.0000 </r>
       <r>    4.0603    1.0000 </r>
       <r>   15.5651    0.0000 </r>
       <r>   19.9173    0.0000 </r>
       <r>   22.8770    0.0000 </r>
       <r>   23.2452    0.0000 </r>
      </set>
      <set comment="kpoint 49">
       <r>   -5.5606    1.0000 </r>
       <r>   -2.0170    1.0000 </r>
       <r>    1.8700    1.0000 </r>
       <r>    4.2246    1.0000 </r>
       <r>   15.9704    0.0000 </r>
       <r>   21.5490    0.0000 </r>
       <r>   22.5545    0.0000 </r>
       <r>   23.4183    0.0000 </r>
      </set>
      <set comment="kpoint 50">
       <r>   -5.0842    1.0000 </r>
       <r>   -2.5272    1.0000 </r>
       <r>    1.3154    1.0000 </r>
       <r>    4.5813    1.0000 </r>
       <r>   16.3778    0.0000 </r>
       <r>   21.9568    0.0000 </r>
       <r>   23.0202    0.0000 </r>
       <r>   23.8937    0.0000 </r>
      </set>
      <set comment="kpoint 51">
       <r>   -6.0013    1.0000 </r>
       <r>   -1.3972    1.0000 </r>
       <r>    1.0253    1.0000 </r>
       <r>    5.1046    1.0000 </r>
       <r>   16.8703    0.0000 </r>
       <r>   21.1134    0.0000 </r>
       <r>   23.1861    0.0000 </r>
       <r>   24.5135    0.0000 </r>
      </set>
      <set comment="kpoint 52">
       <r>   -7.1789    1.0000 </r>
       <r>   -0.0401    1.0000 </r>
       <r>    1.2888    1.0000 </r>
       <r>    5.7473    1.0000 </r>
       <r>   17.4207    0.0000 </r>
       <r>   20.0541    0.0000 </r>
       <r>   22.5810    0.0000 </r>
       <r>   23.8650    0.0000 </r>
      </set>
      <set comment="kpoint 53">
       <r>   -8.1664    1.0000 </r>
       <r>    1.9162    1.0000 </r>
       <r>    3.8687    1.0000 </r>
       <r>    3.8687    1.0000 </r>
       <r>   13.9720    0.0000 </r>
       <r>   17.8493    0.0000 </r>
       <r>   23.5284    0.0000 </r>
       <r>   23.5284    0.0000 </r>
      </set>
      <set comment="kpoint 54">
       <r>   -7.2900    1.0000 </r>
       <r>    0.7341    1.0000 </r>
       <r>    3.2514    1.0000 </r>
       <r>    3.5828    1.0000 </r>
       <r>   14.2967    0.0000 </r>
       <r>   17.3109    0.0000 </r>
       <r>   24.2311    0.0000 </r>
       <r>   24.2723    0.0000 </r>
      </set>
      <set comment="kpoint 55">
       <r>   -6.2255    1.0000 </r>
       <r>   -0.4870    1.0000 </r>
       <r>    2.2416    1.0000 </r>
       <r>    3.5020    1.0000 </r>
       <r>   14.9389    0.0000 </r>
       <r>   17.6732    0.0000 </r>
       <r>   24.4318    0.0000 </r>
       <r>   24.6759    0.0000 </r>
      </set>
      <set comment="kpoint 56">
       <r>   -5.0561    1.0000 </r>
       <r>   -1.6520    1.0000 </r>
       <r>    1.1651    1.0000 </r>
       <r>    3.6300    1.0000 </r>
       <r>   15.3883    0.0000 </r>
       <r>   19.1125    0.0000 </r>
       <r>   24.1563    0.0000 </r>
       <r>   24.8465    0.0000 </r>
      </set>
      <set comment="kpoint 57">
       <r>   -4.2604    1.0000 </r>
       <r>   -2.3492    1.0000 </r>
       <r>    0.3267    1.0000 </r>
       <r>    3.9584    1.0000 </r>
       <r>   15.7774    0.0000 </r>
       <r>   21.1686    0.0000 </r>
       <r>   23.4689    0.0000 </r>
       <r>   24.8721    0.0000 </r>
      </set>
      <set comment="kpoint 58">
       <r>   -4.8955    1.0000 </r>
       <r>   -1.7488    1.0000 </r>
       <r>    0.0722    1.0000 </r>
       <r>    4.4644    1.0000 </r>
       <r>   16.2687    0.0000 </r>
       <r>   22.4236    0.0000 </r>
       <r>   23.1806    0.0000 </r>
       <r>   24.6736    0.0000 </r>
      </set>
      <set comment="kpoint 59">
       <r>   -6.4930    1.0000 </r>
       <r>   -0.2981    1.0000 </r>
       <r>    3.2479    1.0000 </r>
       <r>    3.2479    1.0000 </r>
       <r>   14.0657    0.0000 </r>
       <r>   16.2922    0.0000 </r>
       <r>   25.2002    0.0000 </r>
       <r>   25.2002    0.0000 </r>
      </set>
      <set comment="kpoint 60">
       <r>   -5.5026    1.0000 </r>
       <r>   -1.3947    1.0000 </r>
       <r>    2.6985    1.0000 </r>
       <r>    3.1171    1.0000 </r>
       <r>   14.4975    0.0000 </r>
       <r>   16.0151    0.0000 </r>
       <r>   25.6083    0.0000 </r>
       <r>   25.6943    0.0000 </r>
      </set>
      <set comment="kpoint 61">
       <r>   -4.3749    1.0000 </r>
       <r>   -2.3882    1.0000 </r>
       <r>    1.6859    1.0000 </r>
       <r>    3.1976    1.0000 </r>
       <r>   14.9984    0.0000 </r>
       <r>   16.9078    0.0000 </r>
       <r>   25.4209    0.0000 </r>
       <r>   25.8204    0.0000 </r>
      </set>
      <set comment="kpoint 62">
       <r>   -3.5887    1.0000 </r>
       <r>   -2.9046    1.0000 </r>
       <r>    0.6477    1.0000 </r>
       <r>    3.4844    1.0000 </r>
       <r>   15.3280    0.0000 </r>
       <r>   18.8417    0.0000 </r>
       <r>   24.6778    0.0000 </r>
       <r>   25.5988    0.0000 </r>
      </set>
      <set comment="kpoint 63">
       <r>   -4.5858    1.0000 </r>
       <r>   -2.4967    1.0000 </r>
       <r>    2.9328    1.0000 </r>
       <r>    2.9328    1.0000 </r>
       <r>   14.4447    0.0000 </r>
       <r>   15.1686    0.0000 </r>
       <r>   26.2105    0.0000 </r>
       <r>   26.2105    0.0000 </r>
      </set>
      <set comment="kpoint 64">
       <r>   -3.5388    1.0000 </r>
       <r>   -3.4870    1.0000 </r>
       <r>    2.5199    1.0000 </r>
       <r>    2.9603    1.0000 </r>
       <r>   14.8241    0.0000 </r>
       <r>   15.3203    0.0000 </r>
       <r>   26.1427    0.0000 </r>
       <r>   26.2524    0.0000 </r>
      </set>
      <set comment="kpoint 65">
       <r>  -11.3224    1.0000 </r>
       <r>    6.1558    1.0000 </r>
       <r>    6.7285    1.0000 </r>
       <r>    8.1661    1.0000 </r>
       <r>   15.3062    0.0000 </r>
       <r>   17.4457    0.0000 </r>
       <r>   17.4793    0.0000 </r>
       <r>   23.2873    0.0000 </r>
      </set>
      <set comment="kpoint 66">
       <r>  -10.7225    1.0000 </r>
       <r>    4.3402    1.0000 </r>
       <r>    5.9746    1.0000 </r>
       <r>    7.7347    1.0000 </r>
       <r>   15.9061    0.0000 </r>
       <r>   18.1561    0.0000 </r>
       <r>   18.3722    0.0000 </r>
       <r>   23.3113    0.0000 </r>
      </set>
      <set comment="kpoint 67">
       <r>   -9.8934    1.0000 </r>
       <r>    2.2287    1.0000 </r>
       <r>    5.4960    1.0000 </r>
       <r>    7.1557    1.0000 </r>
       <r>   16.6519    0.0000 </r>
       <r>   18.5443    0.0000 </r>
       <r>   19.1164    0.0000 </r>
       <r>   23.5305    0.0000 </r>
      </set>
      <set comment="kpoint 68">
       <r>   -8.8521    1.0000 </r>
       <r>    0.1290    1.0000 </r>
       <r>    5.1909    1.0000 </r>
       <r>    6.5730    1.0000 </r>
       <r>   17.2767    0.0000 </r>
       <r>   18.6642    0.0000 </r>
       <r>   19.5750    0.0000 </r>
       <r>   24.1014    0.0000 </r>
      </set>
      <set comment="kpoint 69">
       <r>   -7.6472    1.0000 </r>
       <r>   -1.8175    1.0000 </r>
       <r>    5.0465    1.0000 </r>
       <r>    6.0867    1.0000 </r>
       <r>   17.6865    0.0000 </r>
       <r>   18.6004    0.0000 </r>
       <r>   19.8063    0.0000 </r>
       <r>   24.9000    0.0000 </r>
      </set>
      <set comment="kpoint 70">
       <r>   -6.5018    1.0000 </r>
       <r>   -3.3432    1.0000 </r>
       <r>    5.0194    1.0000 </r>
       <r>    5.7882    1.0000 </r>
       <r>   17.9071    0.0000 </r>
       <r>   18.4857    0.0000 </r>
       <r>   19.9008    0.0000 </r>
       <r>   25.5163    0.0000 </r>
      </set>
      <set comment="kpoint 71">
       <r>  -10.5223    1.0000 </r>
       <r>    4.7397    1.0000 </r>
       <r>    5.4675    1.0000 </r>
       <r>    6.8681    1.0000 </r>
       <r>   15.0112    0.0000 </r>
       <r>   19.1594    0.0000 </r>
       <r>   19.4481    0.0000 </r>
       <r>   22.1815    0.0000 </r>
      </set>
      <set comment="kpoint 72">
       <r>   -9.7720    1.0000 </r>
       <r>    3.0039    1.0000 </r>
       <r>    4.7791    1.0000 </r>
       <r>    6.3816    1.0000 </r>
       <r>   15.6474    0.0000 </r>
       <r>   19.6317    0.0000 </r>
       <r>   20.3780    0.0000 </r>
       <r>   21.8707    0.0000 </r>
      </set>
      <set comment="kpoint 73">
       <r>   -8.8045    1.0000 </r>
       <r>    1.0206    1.0000 </r>
       <r>    4.3940    1.0000 </r>
       <r>    5.7934    1.0000 </r>
       <r>   16.3859    0.0000 </r>
       <r>   19.7950    0.0000 </r>
       <r>   20.9707    0.0000 </r>
       <r>   22.1733    0.0000 </r>
      </set>
      <set comment="kpoint 74">
       <r>   -7.6535    1.0000 </r>
       <r>   -0.9119    1.0000 </r>
       <r>    4.1405    1.0000 </r>
       <r>    5.2933    1.0000 </r>
       <r>   16.9426    0.0000 </r>
       <r>   19.7248    0.0000 </r>
       <r>   21.2856    0.0000 </r>
       <r>   23.1009    0.0000 </r>
      </set>
      <set comment="kpoint 75">
       <r>   -6.4453    1.0000 </r>
       <r>   -2.5855    1.0000 </r>
       <r>    3.9109    1.0000 </r>
       <r>    5.0647    1.0000 </r>
       <r>   17.3200    0.0000 </r>
       <r>   19.5159    0.0000 </r>
       <r>   21.4276    0.0000 </r>
       <r>   24.3147    0.0000 </r>
      </set>
      <set comment="kpoint 76">
       <r>   -5.9131    1.0000 </r>
       <r>   -3.2313    1.0000 </r>
       <r>    3.6744    1.0000 </r>
       <r>    5.1779    1.0000 </r>
       <r>   17.6462    0.0000 </r>
       <r>   19.2151    0.0000 </r>
       <r>   21.4263    0.0000 </r>
       <r>   25.1222    0.0000 </r>
      </set>
      <set comment="kpoint 77">
       <r>   -6.8417    1.0000 </r>
       <r>   -2.0565    1.0000 </r>
       <r>    3.5237    1.0000 </r>
       <r>    5.5506    1.0000 </r>
       <r>   17.9746    0.0000 </r>
       <r>   18.8262    0.0000 </r>
       <r>   21.3031    0.0000 </r>
       <r>   24.7399    0.0000 </r>
      </set>
      <set comment="kpoint 78">
       <r>   -8.0588    1.0000 </r>
       <r>   -0.2516    1.0000 </r>
       <r>    3.5349    1.0000 </r>
       <r>    6.0927    1.0000 </r>
       <r>   18.0527    0.0000 </r>
       <r>   18.5078    0.0000 </r>
       <r>   21.0260    0.0000 </r>
       <r>   23.7665    0.0000 </r>
      </set>
      <set comment="kpoint 79">
       <r>   -9.1532    1.0000 </r>
       <r>    1.7067    1.0000 </r>
       <r>    3.7632    1.0000 </r>
       <r>    6.7202    1.0000 </r>
       <r>   17.3674    0.0000 </r>
       <r>   18.6262    0.0000 </r>
       <r>   20.4490    0.0000 </r>
       <r>   23.0831    0.0000 </r>
      </set>
      <set comment="kpoint 80">
       <r>  -10.0492    1.0000 </r>
       <r>    3.4436    1.0000 </r>
       <r>    4.4347    1.0000 </r>
       <r>    7.3197    1.0000 </r>
       <r>   16.5278    0.0000 </r>
       <r>   18.5596    0.0000 </r>
       <r>   19.4834    0.0000 </r>
       <r>   23.0200    0.0000 </r>
      </set>
      <set comment="kpoint 81">
       <r>   -9.4154    1.0000 </r>
       <r>    3.2878    1.0000 </r>
       <r>    4.3487    1.0000 </r>
       <r>    5.3230    1.0000 </r>
       <r>   14.7510    0.0000 </r>
       <r>   20.2519    0.0000 </r>
       <r>   21.0193    0.0000 </r>
       <r>   21.5516    0.0000 </r>
      </set>
      <set comment="kpoint 82">
       <r>   -8.5257    1.0000 </r>
       <r>    1.7345    1.0000 </r>
       <r>    3.6861    1.0000 </r>
       <r>    4.8146    1.0000 </r>
       <r>   15.4376    0.0000 </r>
       <r>   20.0130    0.0000 </r>
       <r>   21.3097    0.0000 </r>
       <r>   22.4468    0.0000 </r>
      </set>
      <set comment="kpoint 83">
       <r>   -7.4410    1.0000 </r>
       <r>   -0.0184    1.0000 </r>
       <r>    3.1989    1.0000 </r>
       <r>    4.3739    1.0000 </r>
       <r>   16.1351    0.0000 </r>
       <r>   20.5394    0.0000 </r>
       <r>   21.3501    0.0000 </r>
       <r>   22.9975    0.0000 </r>
      </set>
      <set comment="kpoint 84">
       <r>   -6.2396    1.0000 </r>
       <r>   -1.6815    1.0000 </r>
       <r>    2.6889    1.0000 </r>
       <r>    4.2477    1.0000 </r>
       <r>   16.6071    0.0000 </r>
       <r>   21.0493    0.0000 </r>
       <r>   21.9114    0.0000 </r>
       <r>   23.2953    0.0000 </r>
      </set>
      <set comment="kpoint 85">
       <r>   -5.3432    1.0000 </r>
       <r>   -2.7557    1.0000 </r>
       <r>    2.2225    1.0000 </r>
       <r>    4.4307    1.0000 </r>
       <r>   16.9913    0.0000 </r>
       <r>   20.7339    0.0000 </r>
       <r>   22.8278    0.0000 </r>
       <r>   23.9496    0.0000 </r>
      </set>
      <set comment="kpoint 86">
       <r>   -5.8882    1.0000 </r>
       <r>   -2.0806    1.0000 </r>
       <r>    1.9054    1.0000 </r>
       <r>    4.8440    1.0000 </r>
       <r>   17.4194    0.0000 </r>
       <r>   20.2078    0.0000 </r>
       <r>   22.8075    0.0000 </r>
       <r>   24.5477    0.0000 </r>
      </set>
      <set comment="kpoint 87">
       <r>   -7.0715    1.0000 </r>
       <r>   -0.4943    1.0000 </r>
       <r>    1.8224    1.0000 </r>
       <r>    5.4220    1.0000 </r>
       <r>   17.9039    0.0000 </r>
       <r>   19.4275    0.0000 </r>
       <r>   22.5583    0.0000 </r>
       <r>   23.6799    0.0000 </r>
      </set>
      <set comment="kpoint 88">
       <r>   -8.2009    1.0000 </r>
       <r>    1.0145    1.0000 </r>
       <r>    2.2591    1.0000 </r>
       <r>    6.0869    1.0000 </r>
       <r>   18.3598    0.0000 </r>
       <r>   18.4065    0.0000 </r>
       <r>   21.8023    0.0000 </r>
       <r>   22.9729    0.0000 </r>
      </set>
      <set comment="kpoint 89">
       <r>   -8.0184    1.0000 </r>
       <r>    1.6253    1.0000 </r>
       <r>    3.4691    1.0000 </r>
       <r>    3.9741    1.0000 </r>
       <r>   14.6263    0.0000 </r>
       <r>   18.3723    0.0000 </r>
       <r>   22.8781    0.0000 </r>
       <r>   23.5492    0.0000 </r>
      </set>
      <set comment="kpoint 90">
       <r>   -7.0074    1.0000 </r>
       <r>    0.3422    1.0000 </r>
       <r>    2.6682    1.0000 </r>
       <r>    3.5951    1.0000 </r>
       <r>   15.3640    0.0000 </r>
       <r>   18.4371    0.0000 </r>
       <r>   23.0124    0.0000 </r>
       <r>   24.2763    0.0000 </r>
      </set>
      <set comment="kpoint 91">
       <r>   -5.8477    1.0000 </r>
       <r>   -1.0233    1.0000 </r>
       <r>    1.7782    1.0000 </r>
       <r>    3.5244    1.0000 </r>
       <r>   15.9617    0.0000 </r>
       <r>   19.5111    0.0000 </r>
       <r>   22.8847    0.0000 </r>
       <r>   24.5482    0.0000 </r>
      </set>
      <set comment="kpoint 92">
       <r>   -4.7763    1.0000 </r>
       <r>   -2.1731    1.0000 </r>
       <r>    1.0150    1.0000 </r>
       <r>    3.7260    1.0000 </r>
       <r>   16.3665    0.0000 </r>
       <r>   21.3219    0.0000 </r>
       <r>   22.5296    0.0000 </r>
       <r>   24.4503    0.0000 </r>
      </set>
      <set comment="kpoint 93">
       <r>   -4.8612    1.0000 </r>
       <r>   -2.0194    1.0000 </r>
       <r>    0.5258    1.0000 </r>
       <r>    4.1455    1.0000 </r>
       <r>   16.8028    0.0000 </r>
       <r>   21.8253    0.0000 </r>
       <r>   23.2217    0.0000 </r>
       <r>   24.1487    0.0000 </r>
      </set>
      <set comment="kpoint 94">
       <r>   -5.9418    1.0000 </r>
       <r>   -0.9495    1.0000 </r>
       <r>    0.6008    1.0000 </r>
       <r>    4.7342    1.0000 </r>
       <r>   17.3337    0.0000 </r>
       <r>   20.7593    0.0000 </r>
       <r>   23.6801    0.0000 </r>
       <r>   23.8695    0.0000 </r>
      </set>
      <set comment="kpoint 95">
       <r>   -6.3570    1.0000 </r>
       <r>   -0.3397    1.0000 </r>
       <r>    2.8769    1.0000 </r>
       <r>    3.0985    1.0000 </r>
       <r>   14.7143    0.0000 </r>
       <r>   16.8641    0.0000 </r>
       <r>   24.5579    0.0000 </r>
       <r>   25.1783    0.0000 </r>
      </set>
      <set comment="kpoint 96">
       <r>   -5.2574    1.0000 </r>
       <r>   -1.3959    1.0000 </r>
       <r>    1.9333    1.0000 </r>
       <r>    2.9764    1.0000 </r>
       <r>   15.4540    0.0000 </r>
       <r>   17.3183    0.0000 </r>
       <r>   24.5406    0.0000 </r>
       <r>   25.4939    0.0000 </r>
      </set>
      <set comment="kpoint 97">
       <r>   -4.1347    1.0000 </r>
       <r>   -2.3195    1.0000 </r>
       <r>    0.8383    1.0000 </r>
       <r>    3.1621    1.0000 </r>
       <r>   15.8795    0.0000 </r>
       <r>   18.9582    0.0000 </r>
       <r>   24.1867    0.0000 </r>
       <r>   25.2451    0.0000 </r>
      </set>
      <set comment="kpoint 98">
       <r>   -3.9459    1.0000 </r>
       <r>   -2.3805    1.0000 </r>
       <r>    0.1278    1.0000 </r>
       <r>    3.5645    1.0000 </r>
       <r>   16.2795    0.0000 </r>
       <r>   21.1491    0.0000 </r>
       <r>   23.2929    0.0000 </r>
       <r>   24.7358    0.0000 </r>
      </set>
      <set comment="kpoint 99">
       <r>   -4.4726    1.0000 </r>
       <r>   -2.4310    1.0000 </r>
       <r>    2.6004    1.0000 </r>
       <r>    2.6631    1.0000 </r>
       <r>   15.0785    0.0000 </r>
       <r>   15.7772    0.0000 </r>
       <r>   25.7549    0.0000 </r>
       <r>   26.0241    0.0000 </r>
      </set>
      <set comment="kpoint 100">
       <r>   -3.4353    1.0000 </r>
       <r>   -3.2481    1.0000 </r>
       <r>    1.6907    1.0000 </r>
       <r>    2.7894    1.0000 </r>
       <r>   15.5673    0.0000 </r>
       <r>   16.8586    0.0000 </r>
       <r>   25.3956    0.0000 </r>
       <r>   25.7167    0.0000 </r>
      </set>
      <set comment="kpoint 101">
       <r>   -8.9550    1.0000 </r>
       <r>    2.1601    1.0000 </r>
       <r>    3.3649    1.0000 </r>
       <r>    5.8759    1.0000 </r>
       <r>   16.3816    0.0000 </r>
       <r>   19.7539    0.0000 </r>
       <r>   21.4773    0.0000 </r>
       <r>   21.5985    0.0000 </r>
      </set>
      <set comment="kpoint 102">
       <r>   -7.9319    1.0000 </r>
       <r>    0.5933    1.0000 </r>
       <r>    2.7710    1.0000 </r>
       <r>    5.2466    1.0000 </r>
       <r>   17.2788    0.0000 </r>
       <r>   19.5676    0.0000 </r>
       <r>   21.6644    0.0000 </r>
       <r>   22.6165    0.0000 </r>
      </set>
      <set comment="kpoint 103">
       <r>   -6.7535    1.0000 </r>
       <r>   -1.1555    1.0000 </r>
       <r>    2.6030    1.0000 </r>
       <r>    4.6796    1.0000 </r>
       <r>   17.9145    0.0000 </r>
       <r>   19.3327    0.0000 </r>
       <r>   22.3000    0.0000 </r>
       <r>   23.4582    0.0000 </r>
      </set>
      <set comment="kpoint 104">
       <r>   -5.6417    1.0000 </r>
       <r>   -2.5821    1.0000 </r>
       <r>    2.5774    1.0000 </r>
       <r>    4.3335    1.0000 </r>
       <r>   18.1781    0.0000 </r>
       <r>   19.1984    0.0000 </r>
       <r>   22.8000    0.0000 </r>
       <r>   24.2823    0.0000 </r>
      </set>
      <set comment="kpoint 105">
       <r>   -7.5800    1.0000 </r>
       <r>    0.8923    1.0000 </r>
       <r>    2.5356    1.0000 </r>
       <r>    4.2413    1.0000 </r>
       <r>   16.3039    0.0000 </r>
       <r>   19.7086    0.0000 </r>
       <r>   21.3412    0.0000 </r>
       <r>   23.6131    0.0000 </r>
      </set>
      <set comment="kpoint 106">
       <r>   -6.4607    1.0000 </r>
       <r>   -0.4202    1.0000 </r>
       <r>    1.9350    1.0000 </r>
       <r>    3.6662    1.0000 </r>
       <r>   17.2231    0.0000 </r>
       <r>   20.0686    0.0000 </r>
       <r>   21.2876    0.0000 </r>
       <r>   24.2996    0.0000 </r>
      </set>
      <set comment="kpoint 107">
       <r>   -5.2953    1.0000 </r>
       <r>   -1.8087    1.0000 </r>
       <r>    1.5829    1.0000 </r>
       <r>    3.3802    1.0000 </r>
       <r>   17.7642    0.0000 </r>
       <r>   20.5239    0.0000 </r>
       <r>   21.9098    0.0000 </r>
       <r>   24.3417    0.0000 </r>
      </set>
      <set comment="kpoint 108">
       <r>   -4.8010    1.0000 </r>
       <r>   -2.3490    1.0000 </r>
       <r>    1.2899    1.0000 </r>
       <r>    3.4949    1.0000 </r>
       <r>   18.1450    0.0000 </r>
       <r>   20.2544    0.0000 </r>
       <r>   23.3167    0.0000 </r>
       <r>   23.7262    0.0000 </r>
      </set>
      <set comment="kpoint 109">
       <r>   -5.7010    1.0000 </r>
       <r>   -1.2986    1.0000 </r>
       <r>    1.1503    1.0000 </r>
       <r>    3.9296    1.0000 </r>
       <r>   18.5705    0.0000 </r>
       <r>   19.6179    0.0000 </r>
       <r>   22.5863    0.0000 </r>
       <r>   24.2011    0.0000 </r>
      </set>
      <set comment="kpoint 110">
       <r>   -6.8720    1.0000 </r>
       <r>   -0.0311    1.0000 </r>
       <r>    1.4877    1.0000 </r>
       <r>    4.5603    1.0000 </r>
       <r>   18.5082    0.0000 </r>
       <r>   19.0955    0.0000 </r>
       <r>   21.8903    0.0000 </r>
       <r>   23.7342    0.0000 </r>
      </set>
      <set comment="kpoint 111">
       <r>   -5.9597    1.0000 </r>
       <r>   -0.5504    1.0000 </r>
       <r>    2.0077    1.0000 </r>
       <r>    2.8738    1.0000 </r>
       <r>   16.4020    0.0000 </r>
       <r>   18.3752    0.0000 </r>
       <r>   22.9007    0.0000 </r>
       <r>   25.0642    0.0000 </r>
      </set>
      <set comment="kpoint 112">
       <r>   -4.8082    1.0000 </r>
       <r>   -1.5582    1.0000 </r>
       <r>    1.2380    1.0000 </r>
       <r>    2.5696    1.0000 </r>
       <r>   17.2549    0.0000 </r>
       <r>   19.3424    0.0000 </r>
       <r>   22.6432    0.0000 </r>
       <r>   24.9375    0.0000 </r>
      </set>
      <set comment="kpoint 113">
       <r>   -3.9911    1.0000 </r>
       <r>   -2.2587    1.0000 </r>
       <r>    0.5281    1.0000 </r>
       <r>    2.7605    1.0000 </r>
       <r>   17.6755    0.0000 </r>
       <r>   21.1922    0.0000 </r>
       <r>   22.2700    0.0000 </r>
       <r>   23.9707    0.0000 </r>
      </set>
      <set comment="kpoint 114">
       <r>   -4.6015    1.0000 </r>
       <r>   -1.7197    1.0000 </r>
       <r>    0.3301    1.0000 </r>
       <r>    3.2490    1.0000 </r>
       <r>   18.1066    0.0000 </r>
       <r>   21.1021    0.0000 </r>
       <r>   23.0082    0.0000 </r>
       <r>   23.3571    0.0000 </r>
      </set>
      <set comment="kpoint 115">
       <r>   -4.1565    1.0000 </r>
       <r>   -2.2870    1.0000 </r>
       <r>    1.8322    1.0000 </r>
       <r>    2.0816    1.0000 </r>
       <r>   16.7450    0.0000 </r>
       <r>   17.3877    0.0000 </r>
       <r>   24.3807    0.0000 </r>
       <r>   25.3208    0.0000 </r>
      </set>
      <set comment="kpoint 116">
       <r>   -3.3038    1.0000 </r>
       <r>   -2.8608    1.0000 </r>
       <r>    0.9280    1.0000 </r>
       <r>    2.2348    1.0000 </r>
       <r>   17.2977    0.0000 </r>
       <r>   19.0226    0.0000 </r>
       <r>   23.8564    0.0000 </r>
       <r>   24.3554    0.0000 </r>
      </set>
      <set comment="kpoint 117">
       <r>   -5.3415    1.0000 </r>
       <r>   -1.0442    1.0000 </r>
       <r>    1.0526    1.0000 </r>
       <r>    2.9224    1.0000 </r>
       <r>   18.6714    0.0000 </r>
       <r>   19.8508    0.0000 </r>
       <r>   21.3145    0.0000 </r>
       <r>   24.6364    0.0000 </r>
      </set>
      <set comment="kpoint 118">
       <r>   -4.2820    1.0000 </r>
       <r>   -1.9543    1.0000 </r>
       <r>    0.7623    1.0000 </r>
       <r>    2.4421    1.0000 </r>
       <r>   19.3330    0.0000 </r>
       <r>   20.1686    0.0000 </r>
       <r>   22.0172    0.0000 </r>
       <r>   23.5816    0.0000 </r>
      </set>
      <set comment="kpoint 119">
       <r>   -3.7253    1.0000 </r>
       <r>   -2.2343    1.0000 </r>
       <r>    1.0555    1.0000 </r>
       <r>    1.6544    1.0000 </r>
       <r>   18.9988    0.0000 </r>
       <r>   19.5052    0.0000 </r>
       <r>   22.3602    0.0000 </r>
       <r>   23.8242    0.0000 </r>
      </set>
      <set comment="kpoint 120">
       <r>   -3.3730    1.0000 </r>
       <r>   -2.4520    1.0000 </r>
       <r>    0.6669    1.0000 </r>
       <r>    1.7304    1.0000 </r>
       <r>   19.4920    0.0000 </r>
       <r>   20.9989    0.0000 </r>
       <r>   22.0711    0.0000 </r>
       <r>   22.3449    0.0000 </r>
      </set>
     </set>
    </set>
   </array>
  </eigenvalues>
  <separator name="orbital magnetization" >
   <v name="MAGDIPOLOUT">      0.00000000      0.00000000      0.00000000</v>
  </separator>
  <dos>
   <i name="efermi">      9.31746381 </i>
   <total>
    <array>
     <dimension dim="1">gridpoints</dimension>
     <dimension dim="2">spin</dimension>
     <field>energy</field>
     <field>total</field>
     <field>integrated</field>
     <set>
      <set comment="spin 1">
       <r>   -14.0489     0.0000     0.0000 </r>
       <r>   -13.9081     0.0000     0.0000 </r>
       <r>   -13.7674     0.0000     0.0000 </r>
       <r>   -13.6267     0.0000     0.0000 </r>
       <r>   -13.4859     0.0000     0.0000 </r>
       <r>   -13.3452     0.0000     0.0000 </r>
       <r>   -13.2045     0.0000     0.0000 </r>
       <r>   -13.0637     0.0000     0.0000 </r>
       <r>   -12.9230     0.0000     0.0000 </r>
       <r>   -12.7823     0.0000     0.0000 </r>
       <r>   -12.6415     0.0000     0.0000 </r>
       <r>   -12.5008     0.0000     0.0000 </r>
       <r>   -12.3601     0.0000     0.0000 </r>
       <r>   -12.2193     0.0000     0.0000 </r>
       <r>   -12.0786     0.0047     0.0007 </r>
       <r>   -11.9378     0.0526     0.0081 </r>
       <r>   -11.7971     0.0362     0.0132 </r>
       <r>   -11.6564     0.1125     0.0290 </r>
       <r>   -11.5156     0.0470     0.0356 </r>
       <r>   -11.3749     0.0647     0.0447 </r>
       <r>   -11.2342     0.1596     0.0672 </r>
       <r>   -11.0934     0.1066     0.0822 </r>
       <r>   -10.9527     0.1270     0.1000 </r>
       <r>   -10.8120     0.0426     0.1060 </r>
       <r>   -10.6712     0.2756     0.1448 </r>
       <r>   -10.5305     0.1027     0.1593 </r>
       <r>   -10.3898     0.1520     0.1807 </r>
       <r>   -10.2490     0.1143     0.1968 </r>
       <r>   -10.1083     0.0898     0.2094 </r>
       <r>    -9.9676     0.2452     0.2439 </r>
       <r>    -9.8268     0.2144     0.2741 </r>
       <r>    -9.6861     0.2864     0.3144 </r>
       <r>    -9.5454     0.0222     0.3175 </r>
       <r>    -9.4046     0.2402     0.3513 </r>
       <r>    -9.2639     0.1451     0.3717 </r>
       <r>    -9.1232     0.3112     0.4155 </r>
       <r>    -8.9824     0.1224     0.4327 </r>
       <r>    -8.8417     0.2679     0.4705 </r>
       <r>    -8.7010     0.3352     0.5176 </r>
       <r>    -8.5602     0.1153     0.5338 </r>
       <r>    -8.4195     0.1734     0.5582 </r>
       <r>    -8.2788     0.1556     0.5802 </r>
       <r>    -8.1380     0.3633     0.6313 </r>
       <r>    -7.9973     0.2996     0.6734 </r>
       <r>    -7.8565     0.4118     0.7314 </r>
       <r>    -7.7158     0.0501     0.7384 </r>
       <r>    -7.5751     0.4403     0.8004 </r>
       <r>    -7.4343     0.2171     0.8310 </r>
       <r>    -7.2936     0.1844     0.8569 </r>
       <r>    -7.1529     0.1240     0.8743 </r>
       <r>    -7.0121     0.6105     0.9603 </r>
       <r>    -6.8714     0.2715     0.9985 </r>
       <r>    -6.7307     0.5176     1.0713 </r>
       <r>    -6.5899     0.1327     1.0900 </r>
       <r>    -6.4492     0.5141     1.1623 </r>
       <r>    -6.3085     0.3157     1.2068 </r>
       <r>    -6.1677     0.3763     1.2597 </r>
       <r>    -6.0270     0.0583     1.2679 </r>
       <r>    -5.8863     0.7322     1.3710 </r>
       <r>    -5.7455     0.3724     1.4234 </r>
       <r>    -5.6048     0.3634     1.4745 </r>
       <r>    -5.4641     0.2077     1.5038 </r>
       <r>    -5.3233     0.2782     1.5429 </r>
       <r>    -5.1826     0.4400     1.6049 </r>
       <r>    -5.0419     0.1590     1.6272 </r>
       <r>    -4.9011     0.0961     1.6408 </r>
       <r>    -4.7604     0.6999     1.7393 </r>
       <r>    -4.6197     0.1444     1.7596 </r>
       <r>    -4.4789     0.1348     1.7786 </r>
       <r>    -4.3382     0.1562     1.8006 </r>
       <r>    -4.1974     0.3202     1.8456 </r>
       <r>    -4.0567     0.2920     1.8867 </r>
       <r>    -3.9160     0.2762     1.9256 </r>
       <r>    -3.7752     0.0897     1.9382 </r>
       <r>    -3.6345     0.1526     1.9597 </r>
       <r>    -3.4938     0.2011     1.9880 </r>
       <r>    -3.3530     0.3280     2.0341 </r>
       <r>    -3.2123     0.4730     2.1007 </r>
       <r>    -3.0716     0.1572     2.1228 </r>
       <r>    -2.9308     0.0345     2.1277 </r>
       <r>    -2.7901     0.4118     2.1856 </r>
       <r>    -2.6494     0.2446     2.2201 </r>
       <r>    -2.5086     0.5677     2.3000 </r>
       <r>    -2.3679     0.5030     2.3708 </r>
       <r>    -2.2272     0.8883     2.4958 </r>
       <r>    -2.0864     0.4211     2.5550 </r>
       <r>    -1.9457     0.7096     2.6549 </r>
       <r>    -1.8050     0.3301     2.7014 </r>
       <r>    -1.6642     0.4832     2.7694 </r>
       <r>    -1.5235     0.3027     2.8120 </r>
       <r>    -1.3828     0.3850     2.8661 </r>
       <r>    -1.2420     0.5464     2.9430 </r>
       <r>    -1.1013     0.2654     2.9804 </r>
       <r>    -0.9606     0.3986     3.0365 </r>
       <r>    -0.8198     0.2556     3.0725 </r>
       <r>    -0.6791     0.0672     3.0819 </r>
       <r>    -0.5384     0.1969     3.1096 </r>
       <r>    -0.3976     0.5968     3.1936 </r>
       <r>    -0.2569     0.2609     3.2303 </r>
       <r>    -0.1161     0.1253     3.2480 </r>
       <r>     0.0246     0.3539     3.2978 </r>
       <r>     0.1653     0.3333     3.3447 </r>
       <r>     0.3061     0.1299     3.3630 </r>
       <r>     0.4468     0.3901     3.4179 </r>
       <r>     0.5875     0.6439     3.5085 </r>
       <r>     0.7283     0.5078     3.5800 </r>
       <r>     0.8690     0.4623     3.6450 </r>
       <r>     1.0097     0.5532     3.7229 </r>
       <r>     1.1505     0.7767     3.8322 </r>
       <r>     1.2912     0.5136     3.9045 </r>
       <r>     1.4319     0.2922     3.9456 </r>
       <r>     1.5727     0.2746     3.9842 </r>
       <r>     1.7134     0.7112     4.0843 </r>
       <r>     1.8541     0.8396     4.2025 </r>
       <r>     1.9949     0.7649     4.3101 </r>
       <r>     2.1356     0.2426     4.3443 </r>
       <r>     2.2763     0.7432     4.4489 </r>
       <r>     2.4171     0.2336     4.4817 </r>
       <r>     2.5578     0.4477     4.5448 </r>
       <r>     2.6985     1.2908     4.7264 </r>
       <r>     2.8393     0.8747     4.8495 </r>
       <r>     2.9800     0.7231     4.9513 </r>
       <r>     3.1207     0.4680     5.0172 </r>
       <r>     3.2615     0.8101     5.1312 </r>
       <r>     3.4022     0.4986     5.2013 </r>
       <r>     3.5429     1.1335     5.3609 </r>
       <r>     3.6837     1.2388     5.5352 </r>
       <r>     3.8244     0.7405     5.6394 </r>
       <r>     3.9652     0.5285     5.7138 </r>
       <r>     4.1059     0.3802     5.7673 </r>
       <r>     4.2466     0.7222     5.8689 </r>
       <r>     4.3874     1.1939     6.0370 </r>
       <r>     4.5281     0.8658     6.1588 </r>
       <r>     4.6688     0.3784     6.2121 </r>
       <r>     4.8096     0.9073     6.3398 </r>
       <r>     4.9503     0.5763     6.4209 </r>
       <r>     5.0910     0.8395     6.5390 </r>
       <r>     5.2318     0.7027     6.6379 </r>
       <r>     5.3725     0.6313     6.7268 </r>
       <r>     5.5132     0.6889     6.8237 </r>
[...]
       </set>
       <set comment="band 5">
        <r>  0.0415  0.0102  0.2144  0.0182  0.0000  0.0000  0.0000  0.0000  0.0000 </r>
        <r>  0.0415  0.0102  0.2144  0.0182  0.0000  0.0000  0.0000  0.0000  0.0000 </r>
       </set>
       <set comment="band 6">
        <r>  0.0405  0.0712  0.0514  0.0827  0.0000  0.0000  0.0000  0.0000  0.0000 </r>
        <r>  0.0405  0.0712  0.0514  0.0827  0.0000  0.0000  0.0000  0.0000  0.0000 </r>
       </set>
       <set comment="band 7">
        <r>  0.1440  0.0818  0.0020  0.0620  0.0000  0.0000  0.0000  0.0000  0.0000 </r>
        <r>  0.1440  0.0818  0.0020  0.0620  0.0000  0.0000  0.0000  0.0000  0.0000 </r>
       </set>
       <set comment="band 8">
        <r>  0.0307  0.1126  0.0764  0.1580  0.0000  0.0000  0.0000  0.0000  0.0000 </r>
        <r>  0.0307  0.1126  0.0764  0.1580  0.0000  0.0000  0.0000  0.0000  0.0000 </r>
       </set>
      </set>
      <set comment="kpoint 111">
       <set comment="band 1">
        <r>  0.2401  0.0136  0.0035  0.0603  0.0000  0.0000  0.0000  0.0000  0.0000 </r>
        <r>  0.2401  0.0136  0.0035  0.0603  0.0000  0.0000  0.0000  0.0000  0.0000 </r>
       </set>
       <set comment="band 2">
        <r>  0.1949  0.0342  0.0221  0.0993  0.0000  0.0000  0.0000  0.0000  0.0000 </r>
        <r>  0.1949  0.0342  0.0221  0.0993  0.0000  0.0000  0.0000  0.0000  0.0000 </r>
       </set>
       <set comment="band 3">
        <r>  0.0173  0.0692  0.1389  0.0859  0.0000  0.0000  0.0000  0.0000  0.0000 </r>
        <r>  0.0173  0.0692  0.1389  0.0859  0.0000  0.0000  0.0000  0.0000  0.0000 </r>
       </set>
       <set comment="band 4">
        <r>  0.0012  0.1671  0.1289  0.0170  0.0000  0.0000  0.0000  0.0000  0.0000 </r>
        <r>  0.0012  0.1671  0.1289  0.0170  0.0000  0.0000  0.0000  0.0000  0.0000 </r>
       </set>
       <set comment="band 5">
        <r>  0.0796  0.0963  0.0327  0.0282  0.0000  0.0000  0.0000  0.0000  0.0000 </r>
        <r>  0.0796  0.0963  0.0327  0.0282  0.0000  0.0000  0.0000  0.0000  0.0000 </r>
       </set>
       <set comment="band 6">
        <r>  0.0858  0.0019  0.0300  0.0730  0.0000  0.0000  0.0000  0.0000  0.0000 </r>
        <r>  0.0858  0.0019  0.0300  0.0730  0.0000  0.0000  0.0000  0.0000  0.0000 </r>
       </set>
       <set comment="band 7">
        <r>  0.0563  0.1288  0.1363  0.0255  0.0000  0.0000  0.0000  0.0000  0.0000 </r>
        <r>  0.0563  0.1288  0.1363  0.0255  0.0000  0.0000  0.0000  0.0000  0.0000 </r>
       </set>
       <set comment="band 8">
        <r>  0.0137  0.1226  0.1936  0.0716  0.0000  0.0000  0.0000  0.0000  0.0000 </r>
        <r>  0.0137  0.1226  0.1936  0.0716  0.0000  0.0000  0.0000  0.0000  0.0000 </r>
       </set>
      </set>
      <set comment="kpoint 112">
       <set comment="band 1">
        <r>  0.2402  0.0167  0.0042  0.0663  0.0000  0.0000  0.0000  0.0000  0.0000 </r>
        <r>  0.2402  0.0167  0.0042  0.0663  0.0000  0.0000  0.0000  0.0000  0.0000 </r>
       </set>
       <set comment="band 2">
        <r>  0.2045  0.0287  0.0083  0.1037  0.0000  0.0000  0.0000  0.0000  0.0000 </r>
        <r>  0.2045  0.0287  0.0083  0.1037  0.0000  0.0000  0.0000  0.0000  0.0000 </r>
       </set>
       <set comment="band 3">
        <r>  0.0180  0.1730  0.0314  0.0756  0.0000  0.0000  0.0000  0.0000  0.0000 </r>
        <r>  0.0180  0.1730  0.0314  0.0756  0.0000  0.0000  0.0000  0.0000  0.0000 </r>
       </set>
       <set comment="band 4">
        <r>  0.0027  0.0501  0.2512  0.0078  0.0000  0.0000  0.0000  0.0000  0.0000 </r>
        <r>  0.0027  0.0501  0.2512  0.0078  0.0000  0.0000  0.0000  0.0000  0.0000 </r>
       </set>
       <set comment="band 5">
        <r>  0.0766  0.0769  0.0506  0.0221  0.0000  0.0000  0.0000  0.0000  0.0000 </r>
        <r>  0.0766  0.0769  0.0506  0.0221  0.0000  0.0000  0.0000  0.0000  0.0000 </r>
       </set>
       <set comment="band 6">
        <r>  0.0646  0.0488  0.0175  0.0914  0.0000  0.0000  0.0000  0.0000  0.0000 </r>
        <r>  0.0646  0.0488  0.0175  0.0914  0.0000  0.0000  0.0000  0.0000  0.0000 </r>
       </set>
       <set comment="band 7">
        <r>  0.0698  0.1045  0.1509  0.0148  0.0000  0.0000  0.0000  0.0000  0.0000 </r>
        <r>  0.0698  0.1045  0.1509  0.0148  0.0000  0.0000  0.0000  0.0000  0.0000 </r>
       </set>
       <set comment="band 8">
        <r>  0.0322  0.1160  0.1579  0.0872  0.0000  0.0000  0.0000  0.0000  0.0000 </r>
        <r>  0.0322  0.1160  0.1579  0.0872  0.0000  0.0000  0.0000  0.0000  0.0000 </r>
       </set>
      </set>
      <set comment="kpoint 113">
       <set comment="band 1">
        <r>  0.2570  0.0341  0.0065  0.0438  0.0000  0.0000  0.0000  0.0000  0.0000 </r>
        <r>  0.2570  0.0341  0.0065  0.0438  0.0000  0.0000  0.0000  0.0000  0.0000 </r>
       </set>
       <set comment="band 2">
        <r>  0.1924  0.0210  0.0027  0.1172  0.0000  0.0000  0.0000  0.0000  0.0000 </r>
        <r>  0.1924  0.0210  0.0027  0.1172  0.0000  0.0000  0.0000  0.0000  0.0000 </r>
       </set>
       <set comment="band 3">
        <r>  0.0152  0.1865  0.0059  0.0791  0.0000  0.0000  0.0000  0.0000  0.0000 </r>
        <r>  0.0152  0.1865  0.0059  0.0791  0.0000  0.0000  0.0000  0.0000  0.0000 </r>
       </set>
       <set comment="band 4">
        <r>  0.0061  0.0162  0.2825  0.0106  0.0000  0.0000  0.0000  0.0000  0.0000 </r>
        <r>  0.0061  0.0162  0.2825  0.0106  0.0000  0.0000  0.0000  0.0000  0.0000 </r>
       </set>
       <set comment="band 5">
        <r>  0.0707  0.0541  0.0544  0.0401  0.0000  0.0000  0.0000  0.0000  0.0000 </r>
        <r>  0.0707  0.0541  0.0544  0.0401  0.0000  0.0000  0.0000  0.0000  0.0000 </r>
       </set>
       <set comment="band 6">
        <r>  0.0292  0.0840  0.0586  0.0782  0.0000  0.0000  0.0000  0.0000  0.0000 </r>
        <r>  0.0292  0.0840  0.0586  0.0782  0.0000  0.0000  0.0000  0.0000  0.0000 </r>
       </set>
       <set comment="band 7">
        <r>  0.0837  0.0784  0.1580  0.0266  0.0000  0.0000  0.0000  0.0000  0.0000 </r>
        <r>  0.0837  0.0784  0.1580  0.0266  0.0000  0.0000  0.0000  0.0000  0.0000 </r>
       </set>
       <set comment="band 8">
        <r>  0.0683  0.1157  0.0669  0.1067  0.0000  0.0000  0.0000  0.0000  0.0000 </r>
        <r>  0.0683  0.1157  0.0669  0.1067  0.0000  0.0000  0.0000  0.0000  0.0000 </r>
       </set>
      </set>
      <set comment="kpoint 114">
       <set comment="band 1">
        <r>  0.2539  0.0434  0.0063  0.0312  0.0000  0.0000  0.0000  0.0000  0.0000 </r>
        <r>  0.2539  0.0434  0.0063  0.0312  0.0000  0.0000  0.0000  0.0000  0.0000 </r>
       </set>
       <set comment="band 2">
        <r>  0.1934  0.0637  0.0022  0.0798  0.0000  0.0000  0.0000  0.0000  0.0000 </r>
        <r>  0.1934  0.0637  0.0022  0.0798  0.0000  0.0000  0.0000  0.0000  0.0000 </r>
       </set>
       <set comment="band 3">
        <r>  0.0140  0.1366  0.0027  0.1300  0.0000  0.0000  0.0000  0.0000  0.0000 </r>
        <r>  0.0140  0.1366  0.0027  0.1300  0.0000  0.0000  0.0000  0.0000  0.0000 </r>
       </set>
       <set comment="band 4">
        <r>  0.0077  0.0074  0.2906  0.0149  0.0000  0.0000  0.0000  0.0000  0.0000 </r>
        <r>  0.0077  0.0074  0.2906  0.0149  0.0000  0.0000  0.0000  0.0000  0.0000 </r>
       </set>
       <set comment="band 5">
        <r>  0.0612  0.0480  0.0542  0.0602  0.0000  0.0000  0.0000  0.0000  0.0000 </r>
        <r>  0.0612  0.0480  0.0542  0.0602  0.0000  0.0000  0.0000  0.0000  0.0000 </r>
       </set>
       <set comment="band 6">
        <r>  0.0258  0.0058  0.2558  0.0103  0.0000  0.0000  0.0000  0.0000  0.0000 </r>
        <r>  0.0258  0.0058  0.2558  0.0103  0.0000  0.0000  0.0000  0.0000  0.0000 </r>
       </set>
       <set comment="band 7">
        <r>  0.1094  0.1304  0.0003  0.0864  0.0000  0.0000  0.0000  0.0000  0.0000 </r>
        <r>  0.1094  0.1304  0.0003  0.0864  0.0000  0.0000  0.0000  0.0000  0.0000 </r>
       </set>
       <set comment="band 8">
        <r>  0.0622  0.1412  0.0045  0.1386  0.0000  0.0000  0.0000  0.0000  0.0000 </r>
        <r>  0.0622  0.1412  0.0045  0.1386  0.0000  0.0000  0.0000  0.0000  0.0000 </r>
       </set>
      </set>
      <set comment="kpoint 115">
       <set comment="band 1">
        <r>  0.2298  0.0236  0.0040  0.0717  0.0000  0.0000  0.0000  0.0000  0.0000 </r>
        <r>  0.2298  0.0236  0.0040  0.0717  0.0000  0.0000  0.0000  0.0000  0.0000 </r>
       </set>
       <set comment="band 2">
        <r>  0.2178  0.0418  0.0076  0.0745  0.0000  0.0000  0.0000  0.0000  0.0000 </r>
        <r>  0.2178  0.0418  0.0076  0.0745  0.0000  0.0000  0.0000  0.0000  0.0000 </r>
       </set>
       <set comment="band 3">
        <r>  0.0108  0.0676  0.1404  0.0901  0.0000  0.0000  0.0000  0.0000  0.0000 </r>
        <r>  0.0108  0.0676  0.1404  0.0901  0.0000  0.0000  0.0000  0.0000  0.0000 </r>
       </set>
       <set comment="band 4">
        <r>  0.0025  0.1439  0.1396  0.0223  0.0000  0.0000  0.0000  0.0000  0.0000 </r>
        <r>  0.0025  0.1439  0.1396  0.0223  0.0000  0.0000  0.0000  0.0000  0.0000 </r>
       </set>
       <set comment="band 5">
        <r>  0.0870  0.0827  0.0314  0.0180  0.0000  0.0000  0.0000  0.0000  0.0000 </r>
        <r>  0.0870  0.0827  0.0314  0.0180  0.0000  0.0000  0.0000  0.0000  0.0000 </r>
       </set>
       <set comment="band 6">
        <r>  0.0888  0.0034  0.0303  0.0807  0.0000  0.0000  0.0000  0.0000  0.0000 </r>
        <r>  0.0888  0.0034  0.0303  0.0807  0.0000  0.0000  0.0000  0.0000  0.0000 </r>
       </set>
       <set comment="band 7">
        <r>  0.0386  0.1467  0.1544  0.0278  0.0000  0.0000  0.0000  0.0000  0.0000 </r>
        <r>  0.0386  0.1467  0.1544  0.0278  0.0000  0.0000  0.0000  0.0000  0.0000 </r>
       </set>
       <set comment="band 8">
        <r>  0.0231  0.0949  0.1811  0.0973  0.0000  0.0000  0.0000  0.0000  0.0000 </r>
        <r>  0.0231  0.0949  0.1811  0.0973  0.0000  0.0000  0.0000  0.0000  0.0000 </r>
       </set>
      </set>
      <set comment="kpoint 116">
       <set comment="band 1">
        <r>  0.2435  0.0341  0.0080  0.0570  0.0000  0.0000  0.0000  0.0000  0.0000 </r>
        <r>  0.2435  0.0341  0.0080  0.0570  0.0000  0.0000  0.0000  0.0000  0.0000 </r>
       </set>
       <set comment="band 2">
        <r>  0.2168  0.0449  0.0023  0.0723  0.0000  0.0000  0.0000  0.0000  0.0000 </r>
        <r>  0.2168  0.0449  0.0023  0.0723  0.0000  0.0000  0.0000  0.0000  0.0000 </r>
       </set>
       <set comment="band 3">
        <r>  0.0023  0.1748  0.0001  0.1116  0.0000  0.0000  0.0000  0.0000  0.0000 </r>
        <r>  0.0023  0.1748  0.0001  0.1116  0.0000  0.0000  0.0000  0.0000  0.0000 </r>
       </set>
       <set comment="band 4">
        <r>  0.0067  0.0070  0.2834  0.0139  0.0000  0.0000  0.0000  0.0000  0.0000 </r>
        <r>  0.0067  0.0070  0.2834  0.0139  0.0000  0.0000  0.0000  0.0000  0.0000 </r>
       </set>
       <set comment="band 5">
        <r>  0.0814  0.0302  0.0552  0.0467  0.0000  0.0000  0.0000  0.0000  0.0000 </r>
        <r>  0.0814  0.0302  0.0552  0.0467  0.0000  0.0000  0.0000  0.0000  0.0000 </r>
       </set>
       <set comment="band 6">
        <r>  0.0691  0.0831  0.0100  0.0722  0.0000  0.0000  0.0000  0.0000  0.0000 </r>
        <r>  0.0691  0.0831  0.0100  0.0722  0.0000  0.0000  0.0000  0.0000  0.0000 </r>
       </set>
       <set comment="band 7">
        <r>  0.0365  0.0084  0.2969  0.0165  0.0000  0.0000  0.0000  0.0000  0.0000 </r>
        <r>  0.0365  0.0084  0.2969  0.0165  0.0000  0.0000  0.0000  0.0000  0.0000 </r>
       </set>
       <set comment="band 8">
        <r>  0.0575  0.1948  0.0000  0.1117  0.0000  0.0000  0.0000  0.0000  0.0000 </r>
        <r>  0.0575  0.1948  0.0000  0.1117  0.0000  0.0000  0.0000  0.0000  0.0000 </r>
       </set>
      </set>
      <set comment="kpoint 117">
       <set comment="band 1">
        <r>  0.2447  0.0104  0.0082  0.0614  0.0000  0.0000  0.0000  0.0000  0.0000 </r>
        <r>  0.2447  0.0104  0.0082  0.0614  0.0000  0.0000  0.0000  0.0000  0.0000 </r>
       </set>
       <set comment="band 2">
        <r>  0.1947  0.0312  0.0431  0.0779  0.0000  0.0000  0.0000  0.0000  0.0000 </r>
        <r>  0.1947  0.0312  0.0431  0.0779  0.0000  0.0000  0.0000  0.0000  0.0000 </r>
       </set>
       <set comment="band 3">
        <r>  0.0212  0.0546  0.1219  0.0984  0.0000  0.0000  0.0000  0.0000  0.0000 </r>
        <r>  0.0212  0.0546  0.1219  0.0984  0.0000  0.0000  0.0000  0.0000  0.0000 </r>
       </set>
       <set comment="band 4">
        <r>  0.0060  0.1853  0.0996  0.0211  0.0000  0.0000  0.0000  0.0000  0.0000 </r>
        <r>  0.0060  0.1853  0.0996  0.0211  0.0000  0.0000  0.0000  0.0000  0.0000 </r>
       </set>
       <set comment="band 5">
        <r>  0.0551  0.1319  0.0558  0.0221  0.0000  0.0000  0.0000  0.0000  0.0000 </r>
        <r>  0.0551  0.1319  0.0558  0.0221  0.0000  0.0000  0.0000  0.0000  0.0000 </r>
       </set>
       <set comment="band 6">
        <r>  0.0008  0.0385  0.0934  0.0645  0.0000  0.0000  0.0000  0.0000  0.0000 </r>
        <r>  0.0008  0.0385  0.0934  0.0645  0.0000  0.0000  0.0000  0.0000  0.0000 </r>
       </set>
       <set comment="band 7">
        <r>  0.1578  0.0657  0.0568  0.0563  0.0000  0.0000  0.0000  0.0000  0.0000 </r>
        <r>  0.1578  0.0657  0.0568  0.0563  0.0000  0.0000  0.0000  0.0000  0.0000 </r>
       </set>
       <set comment="band 8">
        <r>  0.0350  0.0939  0.1747  0.0899  0.0000  0.0000  0.0000  0.0000  0.0000 </r>
        <r>  0.0350  0.0939  0.1747  0.0899  0.0000  0.0000  0.0000  0.0000  0.0000 </r>
       </set>
      </set>
      <set comment="kpoint 118">
       <set comment="band 1">
        <r>  0.2527  0.0199  0.0112  0.0533  0.0000  0.0000  0.0000  0.0000  0.0000 </r>
        <r>  0.2527  0.0199  0.0112  0.0533  0.0000  0.0000  0.0000  0.0000  0.0000 </r>
       </set>
       <set comment="band 2">
        <r>  0.1911  0.0256  0.0137  0.1058  0.0000  0.0000  0.0000  0.0000  0.0000 </r>
        <r>  0.1911  0.0256  0.0137  0.1058  0.0000  0.0000  0.0000  0.0000  0.0000 </r>
       </set>
       <set comment="band 3">
        <r>  0.0267  0.1046  0.0878  0.0754  0.0000  0.0000  0.0000  0.0000  0.0000 </r>
        <r>  0.0267  0.1046  0.0878  0.0754  0.0000  0.0000  0.0000  0.0000  0.0000 </r>
       </set>
       <set comment="band 4">
        <r>  0.0033  0.1207  0.1621  0.0195  0.0000  0.0000  0.0000  0.0000  0.0000 </r>
        <r>  0.0033  0.1207  0.1621  0.0195  0.0000  0.0000  0.0000  0.0000  0.0000 </r>
       </set>
       <set comment="band 5">
        <r>  0.0227  0.0965  0.0856  0.0214  0.0000  0.0000  0.0000  0.0000  0.0000 </r>
        <r>  0.0227  0.0965  0.0856  0.0214  0.0000  0.0000  0.0000  0.0000  0.0000 </r>
       </set>
       <set comment="band 6">
        <r>  0.0574  0.0632  0.1292  0.0191  0.0000  0.0000  0.0000  0.0000  0.0000 </r>
        <r>  0.0574  0.0632  0.1292  0.0191  0.0000  0.0000  0.0000  0.0000  0.0000 </r>
       </set>
       <set comment="band 7">
        <r>  0.1136  0.0881  0.0100  0.1113  0.0000  0.0000  0.0000  0.0000  0.0000 </r>
        <r>  0.1136  0.0881  0.0100  0.1113  0.0000  0.0000  0.0000  0.0000  0.0000 </r>
       </set>
       <set comment="band 8">
        <r>  0.0607  0.0641  0.1133  0.1126  0.0000  0.0000  0.0000  0.0000  0.0000 </r>
        <r>  0.0607  0.0641  0.1133  0.1126  0.0000  0.0000  0.0000  0.0000  0.0000 </r>
       </set>
      </set>
      <set comment="kpoint 119">
       <set comment="band 1">
        <r>  0.2400  0.0225  0.0105  0.0645  0.0000  0.0000  0.0000  0.0000  0.0000 </r>
        <r>  0.2400  0.0225  0.0105  0.0645  0.0000  0.0000  0.0000  0.0000  0.0000 </r>
       </set>
       <set comment="band 2">
        <r>  0.2269  0.0359  0.0217  0.0628  0.0000  0.0000  0.0000  0.0000  0.0000 </r>
        <r>  0.2269  0.0359  0.0217  0.0628  0.0000  0.0000  0.0000  0.0000  0.0000 </r>
       </set>
       <set comment="band 3">
        <r>  0.0086  0.0492  0.1224  0.1122  0.0000  0.0000  0.0000  0.0000  0.0000 </r>
        <r>  0.0086  0.0492  0.1224  0.1122  0.0000  0.0000  0.0000  0.0000  0.0000 </r>
       </set>
       <set comment="band 4">
        <r>  0.0000  0.1613  0.1153  0.0186  0.0000  0.0000  0.0000  0.0000  0.0000 </r>
        <r>  0.0000  0.1613  0.1153  0.0186  0.0000  0.0000  0.0000  0.0000  0.0000 </r>
       </set>
       <set comment="band 5">
        <r>  0.0596  0.1172  0.0567  0.0111  0.0000  0.0000  0.0000  0.0000  0.0000 </r>
        <r>  0.0596  0.1172  0.0567  0.0111  0.0000  0.0000  0.0000  0.0000  0.0000 </r>
       </set>
       <set comment="band 6">
        <r>  0.0478  0.0072  0.0623  0.1023  0.0000  0.0000  0.0000  0.0000  0.0000 </r>
        <r>  0.0478  0.0072  0.0623  0.1023  0.0000  0.0000  0.0000  0.0000  0.0000 </r>
       </set>
       <set comment="band 7">
        <r>  0.0882  0.1206  0.1014  0.0253  0.0000  0.0000  0.0000  0.0000  0.0000 </r>
        <r>  0.0882  0.1206  0.1014  0.0253  0.0000  0.0000  0.0000  0.0000  0.0000 </r>
       </set>
       <set comment="band 8">
        <r>  0.0535  0.0567  0.1332  0.1107  0.0000  0.0000  0.0000  0.0000  0.0000 </r>
        <r>  0.0535  0.0567  0.1332  0.1107  0.0000  0.0000  0.0000  0.0000  0.0000 </r>
       </set>
      </set>
      <set comment="kpoint 120">
       <set comment="band 1">
        <r>  0.2495  0.0374  0.0166  0.0413  0.0000  0.0000  0.0000  0.0000  0.0000 </r>
        <r>  0.2495  0.0374  0.0166  0.0413  0.0000  0.0000  0.0000  0.0000  0.0000 </r>
       </set>
       <set comment="band 2">
        <r>  0.2247  0.0468  0.0108  0.0621  0.0000  0.0000  0.0000  0.0000  0.0000 </r>
        <r>  0.2247  0.0468  0.0108  0.0621  0.0000  0.0000  0.0000  0.0000  0.0000 </r>
       </set>
       <set comment="band 3">
        <r>  0.0009  0.1562  0.0024  0.1232  0.0000  0.0000  0.0000  0.0000  0.0000 </r>
        <r>  0.0009  0.1562  0.0024  0.1232  0.0000  0.0000  0.0000  0.0000  0.0000 </r>
       </set>
       <set comment="band 4">
        <r>  0.0034  0.0171  0.2432  0.0336  0.0000  0.0000  0.0000  0.0000  0.0000 </r>
        <r>  0.0034  0.0171  0.2432  0.0336  0.0000  0.0000  0.0000  0.0000  0.0000 </r>
       </set>
       <set comment="band 5">
        <r>  0.0380  0.0495  0.0892  0.0521  0.0000  0.0000  0.0000  0.0000  0.0000 </r>
        <r>  0.0380  0.0495  0.0892  0.0521  0.0000  0.0000  0.0000  0.0000  0.0000 </r>
       </set>
       <set comment="band 6">
        <r>  0.0004  0.0490  0.1540  0.0293  0.0000  0.0000  0.0000  0.0000  0.0000 </r>
        <r>  0.0004  0.0490  0.1540  0.0293  0.0000  0.0000  0.0000  0.0000  0.0000 </r>
       </set>
       <set comment="band 7">
        <r>  0.1117  0.0749  0.0734  0.0915  0.0000  0.0000  0.0000  0.0000  0.0000 </r>
        <r>  0.1117  0.0749  0.0734  0.0915  0.0000  0.0000  0.0000  0.0000  0.0000 </r>
       </set>
       <set comment="band 8">
        <r>  0.1026  0.1292  0.0042  0.0928  0.0000  0.0000  0.0000  0.0000  0.0000 </r>
        <r>  0.1026  0.1292  0.0042  0.0928  0.0000  0.0000  0.0000  0.0000  0.0000 </r>
       </set>
      </set>
     </set>
    </set>
   </array>
  </projected>
 </calculation>
 <structure name="finalpos" >
  <crystal>
   <varray name="basis" >
    <v>       2.18050236       0.00000000       1.25891346 </v>
    <v>       0.72683412       2.05579703       1.25891346 </v>
    <v>       0.00000000       0.00000000       2.51782692 </v>
   </varray>
   <i name="volume">     11.28658789 </i>
   <varray name="rec_basis" >
    <v>       0.45860991      -0.16214311       0.00000000 </v>
    <v>       0.00000000       0.48642934       0.00000000 </v>
    <v>      -0.22930496      -0.16214311       0.39716789 </v>
   </varray>
  </crystal>
  <varray name="positions" >
   <v>       0.87500000       0.87500000       0.87500000 </v>
   <v>       0.12500000       0.12500000       0.12500000 </v>
  </varray>
 </structure>
</modeling>
