<?xml version="1.0" encoding="ISO-8859-1"?>
<modeling>
 <generator>
  <i name="program" type="string">vasp </i>
  <i name="version" type="string">5.4.4.18Apr17-6-g9f103f2a35  </i>
  <i name="subversion" type="string">(build Jan 25 2021 16:16:55) complex            parallel </i>
  <i name="platform" type="string">LinuxIFC </i>
  <i name="date" type="string">2026 05 08 </i>
  <i name="time" type="string">07:49:05 </i>
 </generator>
 <incar>
  <i type="string" name="SYSTEM"> Diamont Test Results</i>
  <i type="int" name="ISTART">     0</i>
  <i type="string" name="PREC">accurate</i>
  <i type="string" name="ALGO"> Normal</i>
  <i type="int" name="ICHARG">     2</i>
  <i type="int" name="IBRION">    -1</i>
  <i name="EDIFF">      0.00010000</i>
  <i type="int" name="NSW">     0</i>
  <i name="ENCUT">    300.00000000</i>
  <i type="logical" name="LREAL"> F  </i>
  <i type="int" name="ISMEAR">     0</i>
  <i name="SIGMA">      0.05000000</i>
  <i type="logical" name="LWAVE"> F  </i>
  <i type="logical" name="LCHARG"> F  </i>
  <i type="int" name="LORBIT">    11</i>
  <i type="logical" name="LASPH"> T  </i>
  <v type="int" name="KPOINT_BSE">    -1     0     0     0</v>
  <i type="logical" name="LASPH"> T  </i>
 </incar>
 <structure name="primitive_cell" >
  <crystal>
   <varray name="basis" >
    <v>       2.18050236       0.00000000       1.25891346 </v>
    <v>       0.72683412       2.05579703       1.25891346 </v>
    <v>       0.00000000       0.00000000       2.51782692 </v>
   </varray>
   <i name="volume">     11.28658789 </i>
   <varray name="rec_basis" >
    <v>       0.45860991      -0.16214311       0.00000000 </v>
    <v>       0.00000000       0.48642934       0.00000000 </v>
    <v>      -0.22930496      -0.16214311       0.39716789 </v>
   </varray>
  </crystal>
  <varray name="positions" >
   <v>      -0.12500000      -0.12500000      -0.12500000 </v>
   <v>       0.12500000       0.12500000       0.12500000 </v>
  </varray>
 </structure>
 <varray name="primitive_index" >
  <v type="int" >        1 </v>
  <v type="int" >        2 </v>
 </varray>
 <kpoints>
  <generation param="Gamma">
   <v type="int" name="divisions">       2        2        2 </v>
   <v name="usershift">      0.00000000       0.00000000       0.00000000 </v>
   <v name="genvec1">      0.50000000      -0.00000000       0.00000000 </v>
   <v name="genvec2">      0.00000000       0.50000000       0.00000000 </v>
   <v name="genvec3">      0.00000000       0.00000000       0.50000000 </v>
   <v name="shift">      0.00000000       0.00000000       0.00000000 </v>
  </generation>
  <varray name="kpointlist" >
   <v>       0.00000000       0.00000000       0.00000000 </v>
   <v>       0.50000000       0.00000000       0.00000000 </v>
   <v>       0.50000000       0.50000000       0.00000000 </v>
  </varray>
  <varray name="weights" >
   <v>       0.12500000 </v>
   <v>       0.50000000 </v>
   <v>       0.37500000 </v>
  </varray>
 </kpoints>
 <parameters>
  <separator name="general" >
   <i type="string" name="SYSTEM">Diamont Test Results</i>
   <i type="logical" name="LCOMPAT"> F  </i>
  </separator>
  <separator name="electronic" >
   <i type="string" name="PREC">accura</i>
   <i name="ENMAX">    300.00000000</i>
   <i name="ENAUG">    644.87300000</i>
   <i name="EDIFF">      0.00010000</i>
   <i type="int" name="IALGO">    38</i>
   <i type="int" name="IWAVPR">    10</i>
   <i type="int" name="NBANDS">     8</i>
   <i name="NELECT">      8.00000000</i>
   <i type="int" name="TURBO">     0</i>
   <i type="int" name="IRESTART">     0</i>
   <i type="int" name="NREBOOT">     0</i>
   <i type="int" name="NMIN">     0</i>
   <i name="EREF">      0.00000000</i>
   <separator name="electronic smearing" >
    <i type="int" name="ISMEAR">     0</i>
    <i name="SIGMA">      0.05000000</i>
    <i name="KSPACING">      0.50000000</i>
    <i type="logical" name="KGAMMA"> T  </i>
   </separator>
   <separator name="electronic projectors" >
    <i type="logical" name="LREAL"> F  </i>
    <v name="ROPT">      0.00000000</v>
    <i type="int" name="LMAXPAW">  -100</i>
    <i type="int" name="LMAXMIX">     2</i>
    <i type="logical" name="NLSPLINE"> F  </i>
   </separator>
   <separator name="electronic startup" >
    <i type="int" name="ISTART">     0</i>
    <i type="int" name="ICHARG">     2</i>
    <i type="int" name="INIWAV">     1</i>
   </separator>
   <separator name="electronic spin" >
    <i type="int" name="ISPIN">     1</i>
    <i type="logical" name="LNONCOLLINEAR"> F  </i>
    <v name="MAGMOM">      1.00000000      1.00000000</v>
    <i name="NUPDOWN">     -1.00000000</i>
    <i type="logical" name="LSORBIT"> F  </i>
    <v name="SAXIS">      0.00000000      0.00000000      1.00000000</v>
    <i type="logical" name="LSPIRAL"> F  </i>
    <v name="QSPIRAL">      0.00000000      0.00000000      0.00000000</v>
    <i type="logical" name="LZEROZ"> F  </i>
   </separator>
   <separator name="electronic exchange-correlation" >
    <i type="logical" name="LASPH"> T  </i>
    <i type="logical" name="LMETAGGA"> F  </i>
   </separator>
   <separator name="electronic convergence" >
    <i type="int" name="NELM">    60</i>
    <i type="int" name="NELMDL">    -5</i>
    <i type="int" name="NELMIN">     2</i>
    <i name="ENINI">    300.00000000</i>
    <separator name="electronic convergence detail" >
     <i type="logical" name="LDIAG"> T  </i>
     <i type="logical" name="LSUBROT"> F  </i>
     <i name="WEIMIN">      0.00000000</i>
     <i name="EBREAK">      0.00000313</i>
     <i name="DEPER">      0.30000000</i>
     <i type="int" name="NRMM">     4</i>
     <i name="TIME">      0.40000000</i>
    </separator>
   </separator>
   <separator name="electronic mixer" >
    <i name="AMIX">      0.40000000</i>
    <i name="BMIX">      1.00000000</i>
    <i name="AMIN">      0.10000000</i>
    <i name="AMIX_MAG">      1.60000000</i>
    <i name="BMIX_MAG">      1.00000000</i>
    <separator name="electronic mixer details" >
     <i type="int" name="IMIX">     4</i>
     <i type="logical" name="MIXFIRST"> F  </i>
     <i type="int" name="MAXMIX">   -45</i>
     <i name="WC">    100.00000000</i>
     <i type="int" name="INIMIX">     1</i>
     <i type="int" name="MIXPRE">     1</i>
     <i type="int" name="MREMOVE">     5</i>
    </separator>
   </separator>
   <separator name="electronic dipolcorrection" >
    <i type="logical" name="LDIPOL"> F  </i>
    <i type="logical" name="LMONO"> F  </i>
    <i type="int" name="IDIPOL">     0</i>
    <i name="EPSILON">      1.00000000</i>
    <v name="DIPOL">   -100.00000000   -100.00000000   -100.00000000</v>
    <i name="EFIELD">      0.00000000</i>
   </separator>
  </separator>
  <separator name="grids" >
   <i type="int" name="NGX">    14</i>
   <i type="int" name="NGY">    14</i>
   <i type="int" name="NGZ">    14</i>
   <i type="int" name="NGXF">    28</i>
   <i type="int" name="NGYF">    28</i>
   <i type="int" name="NGZF">    28</i>
   <i type="logical" name="ADDGRID"> F  </i>
  </separator>
  <separator name="ionic" >
   <i type="int" name="NSW">     0</i>
   <i type="int" name="IBRION">    -1</i>
   <i type="int" name="MDALGO">     0</i>
   <i type="int" name="ISIF">     2</i>
   <i name="PSTRESS">      0.00000000</i>
   <i name="EDIFFG">      0.00100000</i>
   <i type="int" name="NFREE">     0</i>
   <i name="POTIM">      0.50000000</i>
   <i name="SMASS">     -3.00000000</i>
   <i name="SCALEE">      1.00000000</i>
  </separator>
  <separator name="ionic md" >
   <i name="TEBEG">      0.00010000</i>
   <i name="TEEND">      0.00010000</i>
   <i type="int" name="NBLOCK">     1</i>
   <i type="int" name="KBLOCK">     1</i>
   <i type="int" name="NPACO">   256</i>
   <i name="APACO">     16.00000000</i>
  </separator>
  <separator name="symmetry" >
   <i type="int" name="ISYM">     2</i>
   <i name="SYMPREC">      0.00001000</i>
  </separator>
  <separator name="dos" >
   <i type="int" name="LORBIT">    11</i>
   <v name="RWIGS">     -1.00000000</v>
   <i type="int" name="NEDOS">   301</i>
   <i name="EMIN">     10.00000000</i>
   <i name="EMAX">    -10.00000000</i>
   <i name="EFERMI">      0.00000000</i>
  </separator>
  <separator name="writing" >
   <i type="int" name="NWRITE">     2</i>
   <i type="logical" name="LWAVE"> F  </i>
   <i type="logical" name="LDOWNSAMPLE"> F  </i>
   <i type="logical" name="LCHARG"> F  </i>
   <i type="logical" name="LPARD"> F  </i>
   <i type="logical" name="LVTOT"> F  </i>
   <i type="logical" name="LVHAR"> F  </i>
   <i type="logical" name="LELF"> F  </i>
   <i type="logical" name="LOPTICS"> F  </i>
   <v name="STM">      0.00000000      0.00000000      0.00000000      0.00000000      0.00000000      0.00000000      0.00000000</v>
  </separator>
  <separator name="performance" >
   <i type="int" name="NPAR">     2</i>
   <i type="int" name="NSIM">     4</i>
   <i type="int" name="NBLK">    -1</i>
   <i type="logical" name="LPLANE"> T  </i>
   <i type="logical" name="LSCALAPACK"> T  </i>
   <i type="logical" name="LSCAAWARE"> F  </i>
   <i type="logical" name="LSCALU"> F  </i>
   <i type="logical" name="LASYNC"> F  </i>
   <i type="logical" name="LORBITALREAL"> F  </i>
  </separator>
  <separator name="miscellaneous" >
   <i type="int" name="IDIOT">     3</i>
   <i type="int" name="ISPECIAL">     0</i>
   <i type="logical" name="LMUSIC"> F  </i>
   <v name="POMASS">     12.01100000</v>
   <v name="DARWINR">      0.00000000</v>
   <v name="DARWINV">      1.00000000</v>
   <i type="logical" name="LCORR"> T  </i>
  </separator>
  <i type="logical" name="GGA_COMPAT"> T  </i>
  <i type="logical" name="LBERRY"> F  </i>
  <i type="int" name="ICORELEVEL">     0</i>
  <i type="logical" name="LDAU"> F  </i>
  <i type="int" name="I_CONSTRAINED_M">     0</i>
  <separator name="electronic exchange-correlation" >
   <i type="string" name="GGA">--</i>
   <i type="int" name="VOSKOWN">     0</i>
   <i type="logical" name="LHFCALC"> F  </i>
   <i type="string" name="PRECFOCK"></i>
   <i type="logical" name="LSYMGRAD"> F  </i>
   <i type="logical" name="LHFONE"> F  </i>
   <i type="logical" name="LRHFCALC"> F  </i>
   <i type="logical" name="LTHOMAS"> F  </i>
   <i type="logical" name="LMODELHF"> F  </i>
   <i name="ENCUT4O">     -1.00000000</i>
   <i type="int" name="EXXOEP">     0</i>
   <i type="int" name="FOURORBIT">     0</i>
   <i name="AEXX">      0.00000000</i>
   <i name="HFALPHA">      0.00000000</i>
   <i name="MCALPHA">      0.00000000</i>
   <i name="ALDAX">      1.00000000</i>
   <i name="AGGAX">      1.00000000</i>
   <i name="ALDAC">      1.00000000</i>
   <i name="AGGAC">      1.00000000</i>
   <i type="int" name="NKREDX">     1</i>
   <i type="int" name="NKREDY">     1</i>
   <i type="int" name="NKREDZ">     1</i>
   <i type="logical" name="SHIFTRED"> F  </i>
   <i type="logical" name="ODDONLY"> F  </i>
   <i type="logical" name="EVENONLY"> F  </i>
   <i type="int" name="LMAXFOCK">     0</i>
   <i type="int" name="NMAXFOCKAE">     0</i>
   <i type="logical" name="LFOCKAEDFT"> F  </i>
   <i name="HFSCREEN">      0.00000000</i>
   <i name="HFSCREENC">      0.00000000</i>
   <i type="int" name="NBANDSGWLOW">     0</i>
  </separator>
  <separator name="vdW DFT" >
   <i type="logical" name="LUSE_VDW"> F  </i>
   <i name="Zab_VDW">     -0.84910000</i>
   <i name="PARAM1">      0.12340000</i>
   <i name="PARAM2">      1.00000000</i>
   <i name="PARAM3">      0.00000000</i>
  </separator>
  <separator name="model GW" >
   <i type="int" name="MODEL_GW">     0</i>
   <i name="MODEL_EPS0">      3.38597637</i>
   <i name="MODEL_ALPHA">      1.00000000</i>
  </separator>
  <separator name="linear response parameters" >
   <i type="logical" name="LEPSILON"> F  </i>
   <i type="logical" name="LRPA"> F  </i>
   <i type="logical" name="LNABLA"> F  </i>
   <i type="logical" name="LVEL"> F  </i>
   <i type="int" name="KINTER">     0</i>
   <i name="CSHIFT">      0.10000000</i>
   <i name="OMEGAMAX">     -1.00000000</i>
   <i name="DEG_THRESHOLD">      0.00200000</i>
   <i name="RTIME">     -0.10000000</i>
   <i name="WPLASMAI">      0.00000000</i>
   <v name="DFIELD">      0.00000000      0.00000000      0.00000000</v>
   <v name="WPLASMA">      0.00000000      0.00000000      0.00000000      0.00000000      0.00000000      0.00000000      0.00000000      0.00000000      0.00000000</v>
  </separator>
  <separator name="orbital magnetization" >
   <i type="logical" name="NUCIND"> F  </i>
   <v name="MAGPOS">      0.00000000      0.00000000      0.00000000</v>
   <i type="logical" name="LNICSALL"> T  </i>
   <i type="logical" name="ORBITALMAG"> F  </i>
   <i type="logical" name="LMAGBLOCH"> F  </i>
   <i type="logical" name="LCHIMAG"> F  </i>
   <i type="logical" name="LGAUGE"> T  </i>
   <i type="int" name="MAGATOM">     0</i>
   <v name="MAGDIPOL">      0.00000000      0.00000000      0.00000000</v>
   <v name="AVECCONST">      0.00000000      0.00000000      0.00000000</v>
  </separator>
  <separator name="response functions" >
   <i type="logical" name="LADDER"> F  </i>
   <i type="logical" name="LRPAFORCE"> F  </i>
   <i type="logical" name="LFXC"> F  </i>
   <i type="logical" name="LHARTREE"> T  </i>
   <i type="int" name="IBSE">     0</i>
   <v type="int" name="KPOINT">    -1     0     0     0</v>
   <i type="logical" name="LTCTE"> F  </i>
   <i type="logical" name="LTETE"> F  </i>
   <i type="logical" name="LTRIPLET"> F  </i>
   <i type="logical" name="LFXCEPS"> F  </i>
   <i type="logical" name="LFXHEG"> F  </i>
   <i type="int" name="NATURALO">     2</i>
   <i type="logical" name="L2ORDER"> F  </i>
   <i type="logical" name="LMP2LT"> F  </i>
   <i type="logical" name="LUSEW"> F  </i>
   <i name="ENCUTGW">     -2.00000000</i>
   <i name="ENCUTGWSOFT">     -2.00000000</i>
   <i name="ENCUTLF">     -1.00000000</i>
   <i type="int" name="LMAXMP2">    -1</i>
   <i name="SCISSOR">      0.00000000</i>
   <i type="int" name="NOMEGA">     0</i>
   <i type="int" name="NOMEGAR">     0</i>
   <i type="int" name="NBANDSGW">    -1</i>
   <i type="int" name="NBANDSO">    -1</i>
   <i type="int" name="NBANDSV">    -1</i>
   <i type="int" name="NELM">     1</i>
   <i type="int" name="NELMHF">     1</i>
   <i type="int" name="DIM">     3</i>
   <i type="int" name="ANTIRES">     0</i>
   <i name="OMEGAMAX">    -30.00000000</i>
   <i name="OMEGAMIN">    -30.00000000</i>
   <i name="OMEGATL">   -200.00000000</i>
   <i type="int" name="OMEGAGRID">   140</i>
   <i name="CSHIFT">     -0.10000000</i>
   <i type="logical" name="SELFENERGY"> F  </i>
   <i type="logical" name="LSPECTRAL"> F  </i>
   <i type="logical" name="LSPECTRALGW"> F  </i>
   <i type="logical" name="LSINGLES"> F  </i>
   <i type="logical" name="LFERMIGW"> F  </i>
   <i type="logical" name="ODDONLYGW"> F  </i>
   <i type="logical" name="EVENONLYGW"> F  </i>
   <i type="int" name="NKREDLFX">     1</i>
   <i type="int" name="NKREDLFY">     1</i>
   <i type="int" name="NKREDLFZ">     1</i>
   <i type="int" name="MAXMEM">  2800</i>
   <i type="int" name="TELESCOPE">     0</i>
   <i type="int" name="TAUPAR">     1</i>
   <i type="int" name="OMEGAPAR">    -1</i>
   <i name="LAMBDA">      1.00000000</i>
  </separator>
  <separator name="External order field" >
   <i name="OFIELD_KAPPA">      0.00000000</i>
   <v name="OFIELD_K">      0.00000000      0.00000000      0.00000000</v>
   <i name="OFIELD_Q6_NEAR">      0.00000000</i>
   <i name="OFIELD_Q6_FAR">      0.00000000</i>
   <i name="OFIELD_A">      0.00000000</i>
  </separator>
 </parameters>
 <atominfo>
  <atoms>       2 </atoms>
  <types>       1 </types>
  <array name="atoms" >
   <dimension dim="1">ion</dimension>
   <field type="string">element</field>
   <field type="int">atomtype</field>
   <set>
    <rc><c>C </c><c>   1</c></rc>
    <rc><c>C </c><c>   1</c></rc>
   </set>
  </array>
  <array name="atomtypes" >
   <dimension dim="1">type</dimension>
   <field type="int">atomspertype</field>
   <field type="string">element</field>
   <field>mass</field>
   <field>valence</field>
   <field type="string">pseudopotential</field>
   <set>
    <rc><c>   2</c><c>C </c><c>     12.01100000</c><c>      4.00000000</c><c>  PAW_PBE C 08Apr2002                   </c></rc>
   </set>
  </array>
 </atominfo>
 <structure name="initialpos" >
  <crystal>
   <varray name="basis" >
    <v>       2.18050236       0.00000000       1.25891346 </v>
    <v>       0.72683412       2.05579703       1.25891346 </v>
    <v>       0.00000000       0.00000000       2.51782692 </v>
   </varray>
   <i name="volume">     11.28658789 </i>
   <varray name="rec_basis" >
    <v>       0.45860991      -0.16214311       0.00000000 </v>
    <v>       0.00000000       0.48642934       0.00000000 </v>
    <v>      -0.22930496      -0.16214311       0.39716789 </v>
   </varray>
  </crystal>
  <varray name="positions" >
   <v>       0.87500000       0.87500000       0.87500000 </v>
   <v>       0.12500000       0.12500000       0.12500000 </v>
  </varray>
 </structure>
 <calculation>
  <scstep>
   <time name="dav">    0.00    0.00</time>
   <time name="total">    0.03    0.03</time>
   <energy>
    <i name="alphaZ">      3.94380917 </i>
    <i name="ewald">   -348.55062700 </i>
    <i name="hartreedc">    -17.50286058 </i>
    <i name="XCdc">     27.43730273 </i>
    <i name="pawpsdc">    217.04409276 </i>
    <i name="pawaedc">   -218.18290438 </i>
    <i name="eentropy">     -0.00000000 </i>
    <i name="bandstr">      5.08035167 </i>
    <i name="atom">    293.79980732 </i>
    <i name="e_fr_energy">    -36.93102831 </i>
    <i name="e_wo_entrp">    -36.93102831 </i>
    <i name="e_0_energy">    -36.93102831 </i>
   </energy>
  </scstep>
  <scstep>
   <time name="dav">    0.00    0.00</time>
   <time name="total">    0.00    0.00</time>
   <energy>
    <i name="e_fr_energy">    -47.75284881 </i>
    <i name="e_wo_entrp">    -47.75284881 </i>
    <i name="e_0_energy">    -47.75284881 </i>
   </energy>
  </scstep>
  <scstep>
   <time name="dav">    0.00    0.00</time>
   <time name="total">    0.00    0.00</time>
   <energy>
    <i name="e_fr_energy">    -47.78511550 </i>
    <i name="e_wo_entrp">    -47.78511550 </i>
    <i name="e_0_energy">    -47.78511550 </i>
   </energy>
  </scstep>
  <scstep>
   <time name="dav">    0.00    0.00</time>
   <time name="total">    0.00    0.00</time>
   <energy>
    <i name="e_fr_energy">    -47.78514038 </i>
    <i name="e_wo_entrp">    -47.78514038 </i>
    <i name="e_0_energy">    -47.78514038 </i>
   </energy>
  </scstep>
  <scstep>
   <time name="dav">    0.00    0.00</time>
   <time name="total">    0.00    0.00</time>
   <energy>
    <i name="e_fr_energy">    -47.78514038 </i>
    <i name="e_wo_entrp">    -47.78514038 </i>
    <i name="e_0_energy">    -47.78514038 </i>
   </energy>
  </scstep>
  <scstep>
   <time name="dav">    0.00    0.00</time>
   <time name="total">    0.03    0.03</time>
   <energy>
    <i name="e_fr_energy">    -46.95603960 </i>
    <i name="e_wo_entrp">    -46.95603960 </i>
    <i name="e_0_energy">    -46.95603960 </i>
   </energy>
  </scstep>
  <scstep>
   <time name="dav">    0.00    0.00</time>
   <time name="total">    0.03    0.03</time>
   <energy>
    <i name="e_fr_energy">    -46.65133329 </i>
    <i name="e_wo_entrp">    -46.65133329 </i>
    <i name="e_0_energy">    -46.65133329 </i>
   </energy>
  </scstep>
  <scstep>
   <time name="dav">    0.00    0.00</time>
   <time name="total">    0.03    0.03</time>
   <energy>
    <i name="e_fr_energy">    -46.65604055 </i>
    <i name="e_wo_entrp">    -46.65604055 </i>
    <i name="e_0_energy">    -46.65604055 </i>
   </energy>
  </scstep>
  <scstep>
   <time name="dav">    0.00    0.00</time>
   <time name="total">    0.03    0.03</time>
   <energy>
    <i name="alphaZ">      3.94380917 </i>
    <i name="ewald">   -348.55062700 </i>
    <i name="hartreedc">    -30.33996064 </i>
    <i name="XCdc">     28.63085581 </i>
    <i name="pawpsdc">    930.55544246 </i>
    <i name="pawaedc">   -931.86662798 </i>
    <i name="eentropy">     -0.00000000 </i>
    <i name="bandstr">      7.17116489 </i>
    <i name="atom">    293.79980732 </i>
    <i name="e_fr_energy">    -46.65613597 </i>
    <i name="e_wo_entrp">    -46.65613597 </i>
    <i name="e_0_energy">    -46.65613597 </i>
   </energy>
  </scstep>
  <structure>
   <crystal>
    <varray name="basis" >
     <v>       2.18050236       0.00000000       1.25891346 </v>
     <v>       0.72683412       2.05579703       1.25891346 </v>
     <v>       0.00000000       0.00000000       2.51782692 </v>
    </varray>
    <i name="volume">     11.28658789 </i>
    <varray name="rec_basis" >
     <v>       0.45860991      -0.16214311       0.00000000 </v>
     <v>       0.00000000       0.48642934       0.00000000 </v>
     <v>      -0.22930496      -0.16214311       0.39716789 </v>
    </varray>
   </crystal>
   <varray name="positions" >
    <v>       0.87500000       0.87500000       0.87500000 </v>
    <v>       0.12500000       0.12500000       0.12500000 </v>
   </varray>
  </structure>
  <varray name="forces" >
   <v>       0.00000000       0.00000000      -0.00000000 </v>
   <v>      -0.00000000      -0.00000000       0.00000000 </v>
  </varray>
  <varray name="stress" >
   <v>   -2730.79930142       0.00000000      -0.00000000 </v>
   <v>       0.00000000   -2730.79847732      -0.00000000 </v>
   <v>      -0.00000000      -0.00000000   -2730.79858770 </v>
  </varray>
  <energy>
   <i name="e_fr_energy">    -46.65613597 </i>
   <i name="e_wo_entrp">    -46.65613597 </i>
   <i name="e_0_energy">     -0.00000000 </i>
  </energy>
  <time name="totalsc">    0.24    0.24</time>
  <eigenvalues>
   <array>
    <dimension dim="1">band</dimension>
    <dimension dim="2">kpoint</dimension>
    <dimension dim="3">spin</dimension>
    <field>eigene</field>
    <field>occ</field>
    <set>
     <set comment="spin 1">
      <set comment="kpoint 1">
       <r>  -11.9329    1.0000 </r>
       <r>    9.4363    1.0000 </r>
       <r>    9.4363    1.0000 </r>
       <r>    9.4363    1.0000 </r>
       <r>   15.4278    0.0000 </r>
       <r>   15.4278    0.0000 </r>
       <r>   15.4278    0.0000 </r>
       <r>   23.3276    0.0000 </r>
      </set>
      <set comment="kpoint 2">
       <r>   -6.3187    1.0000 </r>
       <r>   -3.6922    1.0000 </r>
       <r>    6.6146    1.0000 </r>
       <r>    6.6146    1.0000 </r>
       <r>   18.3684    0.0000 </r>
       <r>   18.3684    0.0000 </r>
       <r>   18.7571    0.0000 </r>
       <r>   26.6611    0.0000 </r>
      </set>
      <set comment="kpoint 3">
       <r>   -3.3072    1.0000 </r>
       <r>   -3.3072    1.0000 </r>
       <r>    3.2132    1.0000 </r>
       <r>    3.2132    1.0000 </r>
       <r>   14.9847    0.0000 </r>
       <r>   14.9847    0.0000 </r>
       <r>   27.2435    0.0000 </r>
       <r>   27.2435    0.0000 </r>
      </set>
     </set>
    </set>
   </array>
  </eigenvalues>
  <separator name="orbital magnetization" >
   <v name="MAGDIPOLOUT">      0.00000000      0.00000000      0.00000000</v>
  </separator>
  <dos>
   <i name="efermi">      9.68432609 </i>
   <total>
    <array>
     <dimension dim="1">gridpoints</dimension>
     <dimension dim="2">spin</dimension>
     <field>energy</field>
     <field>total</field>
     <field>integrated</field>
     <set>
      <set comment="spin 1">
       <r>   -13.8917     0.0000     0.0000 </r>
       <r>   -13.7481     0.0000     0.0000 </r>
       <r>   -13.6044     0.0000     0.0000 </r>
       <r>   -13.4608     0.0000     0.0000 </r>
       <r>   -13.3171     0.0000     0.0000 </r>
       <r>   -13.1735     0.0000     0.0000 </r>
       <r>   -13.0298     0.0000     0.0000 </r>
       <r>   -12.8862     0.0000     0.0000 </r>
       <r>   -12.7426     0.0000     0.0000 </r>
       <r>   -12.5989     0.0000     0.0000 </r>
       <r>   -12.4553     0.0000     0.0000 </r>
       <r>   -12.3116     0.0000     0.0000 </r>
       <r>   -12.1680     0.0000     0.0000 </r>
       <r>   -12.0243     0.0085     0.0012 </r>
       <r>   -11.8807     1.6105     0.2326 </r>
       <r>   -11.7370     0.1214     0.2500 </r>
       <r>   -11.5934     0.0000     0.2500 </r>
       <r>   -11.4497     0.0000     0.2500 </r>
       <r>   -11.3061     0.0000     0.2500 </r>
       <r>   -11.1624     0.0000     0.2500 </r>
       <r>   -11.0188     0.0000     0.2500 </r>
       <r>   -10.8751     0.0000     0.2500 </r>
       <r>   -10.7315     0.0000     0.2500 </r>
       <r>   -10.5878     0.0000     0.2500 </r>
       <r>   -10.4442     0.0000     0.2500 </r>
       <r>   -10.3006     0.0000     0.2500 </r>
       <r>   -10.1569     0.0000     0.2500 </r>
       <r>   -10.0133     0.0000     0.2500 </r>
       <r>    -9.8696     0.0000     0.2500 </r>
       <r>    -9.7260     0.0000     0.2500 </r>
       <r>    -9.5823     0.0000     0.2500 </r>
       <r>    -9.4387     0.0000     0.2500 </r>
       <r>    -9.2950     0.0000     0.2500 </r>
       <r>    -9.1514     0.0000     0.2500 </r>
       <r>    -9.0077     0.0000     0.2500 </r>
       <r>    -8.8641     0.0000     0.2500 </r>
       <r>    -8.7204     0.0000     0.2500 </r>
       <r>    -8.5768     0.0000     0.2500 </r>
       <r>    -8.4331     0.0000     0.2500 </r>
       <r>    -8.2895     0.0000     0.2500 </r>
       <r>    -8.1458     0.0000     0.2500 </r>
       <r>    -8.0022     0.0000     0.2500 </r>
       <r>    -7.8586     0.0000     0.2500 </r>
       <r>    -7.7149     0.0000     0.2500 </r>
       <r>    -7.5713     0.0000     0.2500 </r>
       <r>    -7.4276     0.0000     0.2500 </r>
       <r>    -7.2840     0.0000     0.2500 </r>
       <r>    -7.1403     0.0000     0.2500 </r>
       <r>    -6.9967     0.0000     0.2500 </r>
       <r>    -6.8530     0.0000     0.2500 </r>
       <r>    -6.7094     0.0000     0.2500 </r>
       <r>    -6.5657     0.0000     0.2500 </r>
       <r>    -6.4221     0.0121     0.2517 </r>
       <r>    -6.2784     6.0644     1.1229 </r>
       <r>    -6.1348     0.8851     1.2500 </r>
       <r>    -5.9911     0.0000     1.2500 </r>
       <r>    -5.8475     0.0000     1.2500 </r>
       <r>    -5.7039     0.0000     1.2500 </r>
       <r>    -5.5602     0.0000     1.2500 </r>
       <r>    -5.4166     0.0000     1.2500 </r>
       <r>    -5.2729     0.0000     1.2500 </r>
       <r>    -5.1293     0.0000     1.2500 </r>
       <r>    -4.9856     0.0000     1.2500 </r>
       <r>    -4.8420     0.0000     1.2500 </r>
       <r>    -4.6983     0.0000     1.2500 </r>
       <r>    -4.5547     0.0000     1.2500 </r>
       <r>    -4.4110     0.0000     1.2500 </r>
       <r>    -4.2674     0.0000     1.2500 </r>
       <r>    -4.1237     0.0000     1.2500 </r>
       <r>    -3.9801     0.0000     1.2500 </r>
       <r>    -3.8364     0.0002     1.2500 </r>
       <r>    -3.6928     3.4378     1.7439 </r>
       <r>    -3.5491     3.5234     2.2500 </r>
       <r>    -3.4055     0.0285     2.2541 </r>
       <r>    -3.2619     9.3719     3.6003 </r>
       <r>    -3.1182     1.0420     3.7500 </r>
       <r>    -2.9746     0.0000     3.7500 </r>
       <r>    -2.8309     0.0000     3.7500 </r>
       <r>    -2.6873     0.0000     3.7500 </r>
       <r>    -2.5436     0.0000     3.7500 </r>
       <r>    -2.4000     0.0000     3.7500 </r>
       <r>    -2.2563     0.0000     3.7500 </r>
       <r>    -2.1127     0.0000     3.7500 </r>
       <r>    -1.9690     0.0000     3.7500 </r>
       <r>    -1.8254     0.0000     3.7500 </r>
       <r>    -1.6817     0.0000     3.7500 </r>
       <r>    -1.5381     0.0000     3.7500 </r>
       <r>    -1.3944     0.0000     3.7500 </r>
       <r>    -1.2508     0.0000     3.7500 </r>
       <r>    -1.1071     0.0000     3.7500 </r>
       <r>    -0.9635     0.0000     3.7500 </r>
       <r>    -0.8199     0.0000     3.7500 </r>
       <r>    -0.6762     0.0000     3.7500 </r>
       <r>    -0.5326     0.0000     3.7500 </r>
       <r>    -0.3889     0.0000     3.7500 </r>
       <r>    -0.2453     0.0000     3.7500 </r>
       <r>    -0.1016     0.0000     3.7500 </r>
       <r>     0.0420     0.0000     3.7500 </r>
       <r>     0.1857     0.0000     3.7500 </r>
       <r>     0.3293     0.0000     3.7500 </r>
       <r>     0.4730     0.0000     3.7500 </r>
       <r>     0.6166     0.0000     3.7500 </r>
       <r>     0.7603     0.0000     3.7500 </r>
       <r>     0.9039     0.0000     3.7500 </r>
       <r>     1.0476     0.0000     3.7500 </r>
       <r>     1.1912     0.0000     3.7500 </r>
       <r>     1.3348     0.0000     3.7500 </r>
       <r>     1.4785     0.0000     3.7500 </r>
       <r>     1.6221     0.0000     3.7500 </r>
       <r>     1.7658     0.0000     3.7500 </r>
       <r>     1.9094     0.0000     3.7500 </r>
       <r>     2.0531     0.0000     3.7500 </r>
       <r>     2.1967     0.0000     3.7500 </r>
       <r>     2.3404     0.0000     3.7500 </r>
       <r>     2.4840     0.0000     3.7500 </r>
       <r>     2.6277     0.0000     3.7500 </r>
       <r>     2.7713     0.0000     3.7500 </r>
       <r>     2.9150     0.0000     3.7500 </r>
       <r>     3.0586     0.0001     3.7500 </r>
       <r>     3.2023     3.9526     4.3178 </r>
       <r>     3.3459     6.4887     5.2499 </r>
       <r>     3.4896     0.0009     5.2500 </r>
       <r>     3.6332     0.0000     5.2500 </r>
       <r>     3.7768     0.0000     5.2500 </r>
       <r>     3.9205     0.0000     5.2500 </r>
       <r>     4.0641     0.0000     5.2500 </r>
       <r>     4.2078     0.0000     5.2500 </r>
       <r>     4.3514     0.0000     5.2500 </r>
       <r>     4.4951     0.0000     5.2500 </r>
       <r>     4.6387     0.0000     5.2500 </r>
       <r>     4.7824     0.0000     5.2500 </r>
       <r>     4.9260     0.0000     5.2500 </r>
       <r>     5.0697     0.0000     5.2500 </r>
       <r>     5.2133     0.0000     5.2500 </r>
       <r>     5.3570     0.0000     5.2500 </r>
       <r>     5.5006     0.0000     5.2500 </r>
       <r>     5.6443     0.0000     5.2500 </r>
       <r>     5.7879     0.0000     5.2500 </r>
       <r>     5.9316     0.0000     5.2500 </r>
       <r>     6.0752     0.0000     5.2500 </r>
       <r>     6.2188     0.0000     5.2500 </r>
       <r>     6.3625     0.0000     5.2500 </r>
       <r>     6.5061     0.0150     5.2522 </r>
       <r>     6.6498    11.6840     6.9305 </r>
       <r>     6.7934     2.2240     7.2500 </r>
       <r>     6.9371     0.0000     7.2500 </r>
       <r>     7.0807     0.0000     7.2500 </r>
       <r>     7.2244     0.0000     7.2500 </r>
       <r>     7.3680     0.0000     7.2500 </r>
       <r>     7.5117     0.0000     7.2500 </r>
       <r>     7.6553     0.0000     7.2500 </r>
       <r>     7.7990     0.0000     7.2500 </r>
       <r>     7.9426     0.0000     7.2500 </r>
       <r>     8.0863     0.0000     7.2500 </r>
       <r>     8.2299     0.0000     7.2500 </r>
       <r>     8.3735     0.0000     7.2500 </r>
       <r>     8.5172     0.0000     7.2500 </r>
       <r>     8.6608     0.0000     7.2500 </r>
       <r>     8.8045     0.0000     7.2500 </r>
       <r>     8.9481     0.0000     7.2500 </r>
       <r>     9.0918     0.0000     7.2500 </r>
       <r>     9.2354     0.0000     7.2500 </r>
       <r>     9.3791     0.2755     7.2896 </r>
       <r>     9.5227     4.9077     7.9946 </r>
       <r>     9.6664     0.0379     8.0000 </r>
       <r>     9.8100     0.0000     8.0000 </r>
       <r>     9.9537     0.0000     8.0000 </r>
       <r>    10.0973     0.0000     8.0000 </r>
       <r>    10.2410     0.0000     8.0000 </r>
       <r>    10.3846     0.0000     8.0000 </r>
       <r>    10.5283     0.0000     8.0000 </r>
       <r>    10.6719     0.0000     8.0000 </r>
       <r>    10.8155     0.0000     8.0000 </r>
       <r>    10.9592     0.0000     8.0000 </r>
       <r>    11.1028     0.0000     8.0000 </r>
       <r>    11.2465     0.0000     8.0000 </r>
       <r>    11.3901     0.0000     8.0000 </r>
       <r>    11.5338     0.0000     8.0000 </r>
       <r>    11.6774     0.0000     8.0000 </r>
       <r>    11.8211     0.0000     8.0000 </r>
       <r>    11.9647     0.0000     8.0000 </r>
       <r>    12.1084     0.0000     8.0000 </r>
       <r>    12.2520     0.0000     8.0000 </r>
       <r>    12.3957     0.0000     8.0000 </r>
       <r>    12.5393     0.0000     8.0000 </r>
       <r>    12.6830     0.0000     8.0000 </r>
       <r>    12.8266     0.0000     8.0000 </r>
       <r>    12.9702     0.0000     8.0000 </r>
       <r>    13.1139     0.0000     8.0000 </r>
       <r>    13.2575     0.0000     8.0000 </r>
       <r>    13.4012     0.0000     8.0000 </r>
       <r>    13.5448     0.0000     8.0000 </r>
       <r>    13.6885     0.0000     8.0000 </r>
       <r>    13.8321     0.0000     8.0000 </r>
       <r>    13.9758     0.0000     8.0000 </r>
       <r>    14.1194     0.0000     8.0000 </r>
       <r>    14.2631     0.0000     8.0000 </r>
       <r>    14.4067     0.0000     8.0000 </r>
       <r>    14.5504     0.0000     8.0000 </r>
       <r>    14.6940     0.0000     8.0000 </r>
       <r>    14.8377     0.0002     8.0000 </r>
       <r>    14.9813     4.8250     8.6931 </r>
       <r>    15.1250     5.6168     9.4999 </r>
       <r>    15.2686     0.0004     9.5000 </r>
       <r>    15.4122     1.7218     9.7473 </r>
       <r>    15.5559     3.4985    10.2499 </r>
       <r>    15.6995     0.0008    10.2500 </r>
       <r>    15.8432     0.0000    10.2500 </r>
       <r>    15.9868     0.0000    10.2500 </r>
       <r>    16.1305     0.0000    10.2500 </r>
       <r>    16.2741     0.0000    10.2500 </r>
       <r>    16.4178     0.0000    10.2500 </r>
       <r>    16.5614     0.0000    10.2500 </r>
       <r>    16.7051     0.0000    10.2500 </r>
       <r>    16.8487     0.0000    10.2500 </r>
       <r>    16.9924     0.0000    10.2500 </r>
       <r>    17.1360     0.0000    10.2500 </r>
       <r>    17.2797     0.0000    10.2500 </r>
       <r>    17.4233     0.0000    10.2500 </r>
       <r>    17.5670     0.0000    10.2500 </r>
       <r>    17.7106     0.0000    10.2500 </r>
       <r>    17.8542     0.0000    10.2500 </r>
       <r>    17.9979     0.0000    10.2500 </r>
       <r>    18.1415     0.0000    10.2500 </r>
       <r>    18.2852     0.1296    10.2686 </r>
       <r>    18.4288    13.1857    12.1627 </r>
       <r>    18.5725     0.6078    12.2500 </r>
       <r>    18.7161     0.8583    12.3733 </r>
       <r>    18.8598     6.0904    13.2482 </r>
       <r>    19.0034     0.0128    13.2500 </r>
       <r>    19.1471     0.0000    13.2500 </r>
       <r>    19.2907     0.0000    13.2500 </r>
       <r>    19.4344     0.0000    13.2500 </r>
       <r>    19.5780     0.0000    13.2500 </r>
       <r>    19.7217     0.0000    13.2500 </r>
       <r>    19.8653     0.0000    13.2500 </r>
       <r>    20.0089     0.0000    13.2500 </r>
       <r>    20.1526     0.0000    13.2500 </r>
       <r>    20.2962     0.0000    13.2500 </r>
       <r>    20.4399     0.0000    13.2500 </r>
       <r>    20.5835     0.0000    13.2500 </r>
       <r>    20.7272     0.0000    13.2500 </r>
       <r>    20.8708     0.0000    13.2500 </r>
       <r>    21.0145     0.0000    13.2500 </r>
       <r>    21.1581     0.0000    13.2500 </r>
       <r>    21.3018     0.0000    13.2500 </r>
       <r>    21.4454     0.0000    13.2500 </r>
       <r>    21.5891     0.0000    13.2500 </r>
       <r>    21.7327     0.0000    13.2500 </r>
       <r>    21.8764     0.0000    13.2500 </r>
       <r>    22.0200     0.0000    13.2500 </r>
       <r>    22.1637     0.0000    13.2500 </r>
       <r>    22.3073     0.0000    13.2500 </r>
       <r>    22.4509     0.0000    13.2500 </r>
       <r>    22.5946     0.0000    13.2500 </r>
       <r>    22.7382     0.0000    13.2500 </r>
       <r>    22.8819     0.0000    13.2500 </r>
       <r>    23.0255     0.0000    13.2500 </r>
       <r>    23.1692     0.0000    13.2500 </r>
       <r>    23.3128     0.5887    13.3346 </r>
       <r>    23.4565     1.1515    13.5000 </r>
       <r>    23.6001     0.0002    13.5000 </r>
       <r>    23.7438     0.0000    13.5000 </r>
       <r>    23.8874     0.0000    13.5000 </r>
       <r>    24.0311     0.0000    13.5000 </r>
       <r>    24.1747     0.0000    13.5000 </r>
       <r>    24.3184     0.0000    13.5000 </r>
       <r>    24.4620     0.0000    13.5000 </r>
       <r>    24.6057     0.0000    13.5000 </r>
       <r>    24.7493     0.0000    13.5000 </r>
       <r>    24.8929     0.0000    13.5000 </r>
       <r>    25.0366     0.0000    13.5000 </r>
       <r>    25.1802     0.0000    13.5000 </r>
       <r>    25.3239     0.0000    13.5000 </r>
       <r>    25.4675     0.0000    13.5000 </r>
       <r>    25.6112     0.0000    13.5000 </r>
       <r>    25.7548     0.0000    13.5000 </r>
       <r>    25.8985     0.0000    13.5000 </r>
       <r>    26.0421     0.0000    13.5000 </r>
       <r>    26.1858     0.0000    13.5000 </r>
       <r>    26.3294     0.0000    13.5000 </r>
       <r>    26.4731     0.0000    13.5000 </r>
       <r>    26.6167     0.7271    13.6044 </r>
       <r>    26.7604     6.2170    14.4975 </r>
       <r>    26.9040     0.0174    14.5000 </r>
       <r>    27.0476     0.0000    14.5000 </r>
       <r>    27.1913     0.7292    14.6047 </r>
       <r>    27.3349     9.6624    15.9927 </r>
       <r>    27.4786     0.0507    16.0000 </r>
       <r>    27.6222     0.0000    16.0000 </r>
       <r>    27.7659     0.0000    16.0000 </r>
       <r>    27.9095     0.0000    16.0000 </r>
       <r>    28.0532     0.0000    16.0000 </r>
       <r>    28.1968     0.0000    16.0000 </r>
       <r>    28.3405     0.0000    16.0000 </r>
       <r>    28.4841     0.0000    16.0000 </r>
       <r>    28.6278     0.0000    16.0000 </r>
       <r>    28.7714     0.0000    16.0000 </r>
       <r>    28.9151     0.0000    16.0000 </r>
       <r>    29.0587     0.0000    16.0000 </r>
       <r>    29.2024     0.0000    16.0000 </r>
      </set>
     </set>
    </array>
   </total>
   <partial>
    <array>
     <dimension dim="1">gridpoints</dimension>
     <dimension dim="2">spin</dimension>
     <dimension dim="3">ion</dimension>
     <field>energy</field>
     <field>    s</field>
     <field>   py</field>
     <field>   pz</field>
     <field>   px</field>
     <field>  dxy</field>
     <field>  dyz</field>
     <field>  dz2</field>
     <field>  dxz</field>
     <field>x2-y2</field>
     <set>
      <set comment="ion 1">
       <set comment="spin 1">
        <r>   -13.8917     0.0000     0.0000     0.0000     0.0000     0.0000     0.0000     0.0000     0.0000     0.0000 </r>
        <r>   -13.7481     0.0000     0.0000     0.0000     0.0000     0.0000     0.0000     0.0000     0.0000     0.0000 </r>
        <r>   -13.6044     0.0000     0.0000     0.0000     0.0000     0.0000     0.0000     0.0000     0.0000     0.0000 </r>
        <r>   -13.4608     0.0000     0.0000     0.0000     0.0000     0.0000     0.0000     0.0000     0.0000     0.0000 </r>
        <r>   -13.3171     0.0000     0.0000     0.0000     0.0000     0.0000     0.0000     0.0000     0.0000     0.0000 </r>
        <r>   -13.1735     0.0000     0.0000     0.0000     0.0000     0.0000     0.0000     0.0000     0.0000     0.0000 </r>
        <r>   -13.0298     0.0000     0.0000     0.0000     0.0000     0.0000     0.0000     0.0000     0.0000     0.0000 </r>
        <r>   -12.8862     0.0000     0.0000     0.0000     0.0000     0.0000     0.0000     0.0000     0.0000     0.0000 </r>
        <r>   -12.7426     0.0000     0.0000     0.0000     0.0000     0.0000     0.0000     0.0000     0.0000     0.0000 </r>
        <r>   -12.5989     0.0000     0.0000     0.0000     0.0000     0.0000     0.0000     0.0000     0.0000     0.0000 </r>
        <r>   -12.4553     0.0000     0.0000     0.0000     0.0000     0.0000     0.0000     0.0000     0.0000     0.0000 </r>
        <r>   -12.3116     0.0000     0.0000     0.0000     0.0000     0.0000     0.0000     0.0000     0.0000     0.0000 </r>
        <r>   -12.1680     0.0000     0.0000     0.0000     0.0000     0.0000     0.0000     0.0000     0.0000     0.0000 </r>
        <r>   -12.0243     0.0024     0.0000     0.0000     0.0000     0.0000     0.0000     0.0000     0.0000     0.0000 </r>
        <r>   -11.8807     0.4583     0.0000     0.0000     0.0000     0.0000     0.0000     0.0000     0.0000     0.0000 </r>
        <r>   -11.7370     0.0346     0.0000     0.0000     0.0000     0.0000     0.0000     0.0000     0.0000     0.0000 </r>
        <r>   -11.5934     0.0000     0.0000     0.0000     0.0000     0.0000     0.0000     0.0000     0.0000     0.0000 </r>
        <r>   -11.4497     0.0000     0.0000     0.0000     0.0000     0.0000     0.0000     0.0000     0.0000     0.0000 </r>
        <r>   -11.3061     0.0000     0.0000     0.0000     0.0000     0.0000     0.0000     0.0000     0.0000     0.0000 </r>
        <r>   -11.1624     0.0000     0.0000     0.0000     0.0000     0.0000     0.0000     0.0000     0.0000     0.0000 </r>
        <r>   -11.0188     0.0000     0.0000     0.0000     0.0000     0.0000     0.0000     0.0000     0.0000     0.0000 </r>
        <r>   -10.8751     0.0000     0.0000     0.0000     0.0000     0.0000     0.0000     0.0000     0.0000     0.0000 </r>
        <r>   -10.7315     0.0000     0.0000     0.0000     0.0000     0.0000     0.0000     0.0000     0.0000     0.0000 </r>
        <r>   -10.5878     0.0000     0.0000     0.0000     0.0000     0.0000     0.0000     0.0000     0.0000     0.0000 </r>
        <r>   -10.4442     0.0000     0.0000     0.0000     0.0000     0.0000     0.0000     0.0000     0.0000     0.0000 </r>
        <r>   -10.3006     0.0000     0.0000     0.0000     0.0000     0.0000     0.0000     0.0000     0.0000     0.0000 </r>
        <r>   -10.1569     0.0000     0.0000     0.0000     0.0000     0.0000     0.0000     0.0000     0.0000     0.0000 </r>
        <r>   -10.0133     0.0000     0.0000     0.0000     0.0000     0.0000     0.0000     0.0000     0.0000     0.0000 </r>
        <r>    -9.8696     0.0000     0.0000     0.0000     0.0000     0.0000     0.0000     0.0000     0.0000     0.0000 </r>
        <r>    -9.7260     0.0000     0.0000     0.0000     0.0000     0.0000     0.0000     0.0000     0.0000     0.0000 </r>
        <r>    -9.5823     0.0000     0.0000     0.0000     0.0000     0.0000     0.0000     0.0000     0.0000     0.0000 </r>
        <r>    -9.4387     0.0000     0.0000     0.0000     0.0000     0.0000     0.0000     0.0000     0.0000     0.0000 </r>
        <r>    -9.2950     0.0000     0.0000     0.0000     0.0000     0.0000     0.0000     0.0000     0.0000     0.0000 </r>
        <r>    -9.1514     0.0000     0.0000     0.0000     0.0000     0.0000     0.0000     0.0000     0.0000     0.0000 </r>
        <r>    -9.0077     0.0000     0.0000     0.0000     0.0000     0.0000     0.0000     0.0000     0.0000     0.0000 </r>
        <r>    -8.8641     0.0000     0.0000     0.0000     0.0000     0.0000     0.0000     0.0000     0.0000     0.0000 </r>
        <r>    -8.7204     0.0000     0.0000     0.0000     0.0000     0.0000     0.0000     0.0000     0.0000     0.0000 </r>
        <r>    -8.5768     0.0000     0.0000     0.0000     0.0000     0.0000     0.0000     0.0000     0.0000     0.0000 </r>
        <r>    -8.4331     0.0000     0.0000     0.0000     0.0000     0.0000     0.0000     0.0000     0.0000     0.0000 </r>
        <r>    -8.2895     0.0000     0.0000     0.0000     0.0000     0.0000     0.0000     0.0000     0.0000     0.0000 </r>
        <r>    -8.1458     0.0000     0.0000     0.0000     0.0000     0.0000     0.0000     0.0000     0.0000     0.0000 </r>
        <r>    -8.0022     0.0000     0.0000     0.0000     0.0000     0.0000     0.0000     0.0000     0.0000     0.0000 </r>
        <r>    -7.8586     0.0000     0.0000     0.0000     0.0000     0.0000     0.0000     0.0000     0.0000     0.0000 </r>
        <r>    -7.7149     0.0000     0.0000     0.0000     0.0000     0.0000     0.0000     0.0000     0.0000     0.0000 </r>
        <r>    -7.5713     0.0000     0.0000     0.0000     0.0000     0.0000     0.0000     0.0000     0.0000     0.0000 </r>
        <r>    -7.4276     0.0000     0.0000     0.0000     0.0000     0.0000     0.0000     0.0000     0.0000     0.0000 </r>
        <r>    -7.2840     0.0000     0.0000     0.0000     0.0000     0.0000     0.0000     0.0000     0.0000     0.0000 </r>
        <r>    -7.1403     0.0000     0.0000     0.0000     0.0000     0.0000     0.0000     0.0000     0.0000     0.0000 </r>
        <r>    -6.9967     0.0000     0.0000     0.0000     0.0000     0.0000     0.0000     0.0000     0.0000     0.0000 </r>
        <r>    -6.8530     0.0000     0.0000     0.0000     0.0000     0.0000     0.0000     0.0000     0.0000     0.0000 </r>
        <r>    -6.7094     0.0000     0.0000     0.0000     0.0000     0.0000     0.0000     0.0000     0.0000     0.0000 </r>
        <r>    -6.5657     0.0000     0.0000     0.0000     0.0000     0.0000     0.0000     0.0000     0.0000     0.0000 </r>
        <r>    -6.4221     0.0036     0.0000     0.0000     0.0003     0.0000     0.0000     0.0000     0.0000     0.0000 </r>
        <r>    -6.2784     1.8043     0.0218     0.0000     0.1740     0.0000     0.0000     0.0000     0.0000     0.0000 </r>
        <r>    -6.1348     0.2633     0.0032     0.0000     0.0254     0.0000     0.0000     0.0000     0.0000     0.0000 </r>
        <r>    -5.9911     0.0000     0.0000     0.0000     0.0000     0.0000     0.0000     0.0000     0.0000     0.0000 </r>
        <r>    -5.8475     0.0000     0.0000     0.0000     0.0000     0.0000     0.0000     0.0000     0.0000     0.0000 </r>
        <r>    -5.7039     0.0000     0.0000     0.0000     0.0000     0.0000     0.0000     0.0000     0.0000     0.0000 </r>
        <r>    -5.5602     0.0000     0.0000     0.0000     0.0000     0.0000     0.0000     0.0000     0.0000     0.0000 </r>
        <r>    -5.4166     0.0000     0.0000     0.0000     0.0000     0.0000     0.0000     0.0000     0.0000     0.0000 </r>
        <r>    -5.2729     0.0000     0.0000     0.0000     0.0000     0.0000     0.0000     0.0000     0.0000     0.0000 </r>
        <r>    -5.1293     0.0000     0.0000     0.0000     0.0000     0.0000     0.0000     0.0000     0.0000     0.0000 </r>
        <r>    -4.9856     0.0000     0.0000     0.0000     0.0000     0.0000     0.0000     0.0000     0.0000     0.0000 </r>
        <r>    -4.8420     0.0000     0.0000     0.0000     0.0000     0.0000     0.0000     0.0000     0.0000     0.0000 </r>
        <r>    -4.6983     0.0000     0.0000     0.0000     0.0000     0.0000     0.0000     0.0000     0.0000     0.0000 </r>
        <r>    -4.5547     0.0000     0.0000     0.0000     0.0000     0.0000     0.0000     0.0000     0.0000     0.0000 </r>
        <r>    -4.4110     0.0000     0.0000     0.0000     0.0000     0.0000     0.0000     0.0000     0.0000     0.0000 </r>
        <r>    -4.2674     0.0000     0.0000     0.0000     0.0000     0.0000     0.0000     0.0000     0.0000     0.0000 </r>
        <r>    -4.1237     0.0000     0.0000     0.0000     0.0000     0.0000     0.0000     0.0000     0.0000     0.0000 </r>
        <r>    -3.9801     0.0000     0.0000     0.0000     0.0000     0.0000     0.0000     0.0000     0.0000     0.0000 </r>
        <r>    -3.8364     0.0000     0.0000     0.0000     0.0000     0.0000     0.0000     0.0000     0.0000     0.0000 </r>
        <r>    -3.6928     0.2870     0.0740     0.0000     0.5924     0.0000     0.0000     0.0000     0.0000     0.0000 </r>
        <r>    -3.5491     0.2941     0.0759     0.0000     0.6071     0.0000     0.0000     0.0000     0.0000     0.0000 </r>
        <r>    -3.4055     0.0060     0.0011     0.0000     0.0022     0.0000     0.0000     0.0000     0.0000     0.0000 </r>
        <r>    -3.2619     1.9919     0.3533     0.0000     0.7065     0.0000     0.0000     0.0000     0.0000     0.0000 </r>
        <r>    -3.1182     0.2215     0.0393     0.0000     0.0786     0.0000     0.0000     0.0000     0.0000     0.0000 </r>
        <r>    -2.9746     0.0000     0.0000     0.0000     0.0000     0.0000     0.0000     0.0000     0.0000     0.0000 </r>
        <r>    -2.8309     0.0000     0.0000     0.0000     0.0000     0.0000     0.0000     0.0000     0.0000     0.0000 </r>
        <r>    -2.6873     0.0000     0.0000     0.0000     0.0000     0.0000     0.0000     0.0000     0.0000     0.0000 </r>
        <r>    -2.5436     0.0000     0.0000     0.0000     0.0000     0.0000     0.0000     0.0000     0.0000     0.0000 </r>
        <r>    -2.4000     0.0000     0.0000     0.0000     0.0000     0.0000     0.0000     0.0000     0.0000     0.0000 </r>
        <r>    -2.2563     0.0000     0.0000     0.0000     0.0000     0.0000     0.0000     0.0000     0.0000     0.0000 </r>
        <r>    -2.1127     0.0000     0.0000     0.0000     0.0000     0.0000     0.0000     0.0000     0.0000     0.0000 </r>
        <r>    -1.9690     0.0000     0.0000     0.0000     0.0000     0.0000     0.0000     0.0000     0.0000     0.0000 </r>
        <r>    -1.8254     0.0000     0.0000     0.0000     0.0000     0.0000     0.0000     0.0000     0.0000     0.0000 </r>
        <r>    -1.6817     0.0000     0.0000     0.0000     0.0000     0.0000     0.0000     0.0000     0.0000     0.0000 </r>
        <r>    -1.5381     0.0000     0.0000     0.0000     0.0000     0.0000     0.0000     0.0000     0.0000     0.0000 </r>
        <r>    -1.3944     0.0000     0.0000     0.0000     0.0000     0.0000     0.0000     0.0000     0.0000     0.0000 </r>
        <r>    -1.2508     0.0000     0.0000     0.0000     0.0000     0.0000     0.0000     0.0000     0.0000     0.0000 </r>
        <r>    -1.1071     0.0000     0.0000     0.0000     0.0000     0.0000     0.0000     0.0000     0.0000     0.0000 </r>
        <r>    -0.9635     0.0000     0.0000     0.0000     0.0000     0.0000     0.0000     0.0000     0.0000     0.0000 </r>
        <r>    -0.8199     0.0000     0.0000     0.0000     0.0000     0.0000     0.0000     0.0000     0.0000     0.0000 </r>
        <r>    -0.6762     0.0000     0.0000     0.0000     0.0000     0.0000     0.0000     0.0000     0.0000     0.0000 </r>
        <r>    -0.5326     0.0000     0.0000     0.0000     0.0000     0.0000     0.0000     0.0000     0.0000     0.0000 </r>
        <r>    -0.3889     0.0000     0.0000     0.0000     0.0000     0.0000     0.0000     0.0000     0.0000     0.0000 </r>
        <r>    -0.2453     0.0000     0.0000     0.0000     0.0000     0.0000     0.0000     0.0000     0.0000     0.0000 </r>
        <r>    -0.1016     0.0000     0.0000     0.0000     0.0000     0.0000     0.0000     0.0000     0.0000     0.0000 </r>
        <r>     0.0420     0.0000     0.0000     0.0000     0.0000     0.0000     0.0000     0.0000     0.0000     0.0000 </r>
        <r>     0.1857     0.0000     0.0000     0.0000     0.0000     0.0000     0.0000     0.0000     0.0000     0.0000 </r>
        <r>     0.3293     0.0000     0.0000     0.0000     0.0000     0.0000     0.0000     0.0000     0.0000     0.0000 </r>
        <r>     0.4730     0.0000     0.0000     0.0000     0.0000     0.0000     0.0000     0.0000     0.0000     0.0000 </r>
        <r>     0.6166     0.0000     0.0000     0.0000     0.0000     0.0000     0.0000     0.0000     0.0000     0.0000 </r>
        <r>     0.7603     0.0000     0.0000     0.0000     0.0000     0.0000     0.0000     0.0000     0.0000     0.0000 </r>
        <r>     0.9039     0.0000     0.0000     0.0000     0.0000     0.0000     0.0000     0.0000     0.0000     0.0000 </r>
        <r>     1.0476     0.0000     0.0000     0.0000     0.0000     0.0000     0.0000     0.0000     0.0000     0.0000 </r>
        <r>     1.1912     0.0000     0.0000     0.0000     0.0000     0.0000     0.0000     0.0000     0.0000     0.0000 </r>
        <r>     1.3348     0.0000     0.0000     0.0000     0.0000     0.0000     0.0000     0.0000     0.0000     0.0000 </r>
        <r>     1.4785     0.0000     0.0000     0.0000     0.0000     0.0000     0.0000     0.0000     0.0000     0.0000 </r>
        <r>     1.6221     0.0000     0.0000     0.0000     0.0000     0.0000     0.0000     0.0000     0.0000     0.0000 </r>
        <r>     1.7658     0.0000     0.0000     0.0000     0.0000     0.0000     0.0000     0.0000     0.0000     0.0000 </r>
        <r>     1.9094     0.0000     0.0000     0.0000     0.0000     0.0000     0.0000     0.0000     0.0000     0.0000 </r>
        <r>     2.0531     0.0000     0.0000     0.0000     0.0000     0.0000     0.0000     0.0000     0.0000     0.0000 </r>
        <r>     2.1967     0.0000     0.0000     0.0000     0.0000     0.0000     0.0000     0.0000     0.0000     0.0000 </r>
        <r>     2.3404     0.0000     0.0000     0.0000     0.0000     0.0000     0.0000     0.0000     0.0000     0.0000 </r>
        <r>     2.4840     0.0000     0.0000     0.0000     0.0000     0.0000     0.0000     0.0000     0.0000     0.0000 </r>
        <r>     2.6277     0.0000     0.0000     0.0000     0.0000     0.0000     0.0000     0.0000     0.0000     0.0000 </r>
        <r>     2.7713     0.0000     0.0000     0.0000     0.0000     0.0000     0.0000     0.0000     0.0000     0.0000 </r>
        <r>     2.9150     0.0000     0.0000     0.0000     0.0000     0.0000     0.0000     0.0000     0.0000     0.0000 </r>
        <r>     3.0586     0.0000     0.0000     0.0000     0.0000     0.0000     0.0000     0.0000     0.0000     0.0000 </r>
        <r>     3.2023     0.0000     0.4425     0.6640     0.2212     0.0000     0.0000     0.0000     0.0000     0.0000 </r>
        <r>     3.3459     0.0000     0.7266     1.0897     0.3633     0.0000     0.0000     0.0000     0.0000     0.0000 </r>
        <r>     3.4896     0.0000     0.0001     0.0002     0.0001     0.0000     0.0000     0.0000     0.0000     0.0000 </r>
        <r>     3.6332     0.0000     0.0000     0.0000     0.0000     0.0000     0.0000     0.0000     0.0000     0.0000 </r>
        <r>     3.7768     0.0000     0.0000     0.0000     0.0000     0.0000     0.0000     0.0000     0.0000     0.0000 </r>
        <r>     3.9205     0.0000     0.0000     0.0000     0.0000     0.0000     0.0000     0.0000     0.0000     0.0000 </r>
        <r>     4.0641     0.0000     0.0000     0.0000     0.0000     0.0000     0.0000     0.0000     0.0000     0.0000 </r>
        <r>     4.2078     0.0000     0.0000     0.0000     0.0000     0.0000     0.0000     0.0000     0.0000     0.0000 </r>
        <r>     4.3514     0.0000     0.0000     0.0000     0.0000     0.0000     0.0000     0.0000     0.0000     0.0000 </r>
        <r>     4.4951     0.0000     0.0000     0.0000     0.0000     0.0000     0.0000     0.0000     0.0000     0.0000 </r>
        <r>     4.6387     0.0000     0.0000     0.0000     0.0000     0.0000     0.0000     0.0000     0.0000     0.0000 </r>
        <r>     4.7824     0.0000     0.0000     0.0000     0.0000     0.0000     0.0000     0.0000     0.0000     0.0000 </r>
        <r>     4.9260     0.0000     0.0000     0.0000     0.0000     0.0000     0.0000     0.0000     0.0000     0.0000 </r>
        <r>     5.0697     0.0000     0.0000     0.0000     0.0000     0.0000     0.0000     0.0000     0.0000     0.0000 </r>
        <r>     5.2133     0.0000     0.0000     0.0000     0.0000     0.0000     0.0000     0.0000     0.0000     0.0000 </r>
        <r>     5.3570     0.0000     0.0000     0.0000     0.0000     0.0000     0.0000     0.0000     0.0000     0.0000 </r>
        <r>     5.5006     0.0000     0.0000     0.0000     0.0000     0.0000     0.0000     0.0000     0.0000     0.0000 </r>
        <r>     5.6443     0.0000     0.0000     0.0000     0.0000     0.0000     0.0000     0.0000     0.0000     0.0000 </r>
        <r>     5.7879     0.0000     0.0000     0.0000     0.0000     0.0000     0.0000     0.0000     0.0000     0.0000 </r>
        <r>     5.9316     0.0000     0.0000     0.0000     0.0000     0.0000     0.0000     0.0000     0.0000     0.0000 </r>
        <r>     6.0752     0.0000     0.0000     0.0000     0.0000     0.0000     0.0000     0.0000     0.0000     0.0000 </r>
        <r>     6.2188     0.0000     0.0000     0.0000     0.0000     0.0000     0.0000     0.0000     0.0000     0.0000 </r>
        <r>     6.3625     0.0000     0.0000     0.0000     0.0000     0.0000     0.0000     0.0000     0.0000     0.0000 </r>
        <r>     6.5061     0.0000     0.0025     0.0028     0.0003     0.0000     0.0000     0.0000     0.0000     0.0000 </r>
        <r>     6.6498     0.0000     1.9078     2.1465     0.2385     0.0000     0.0000     0.0000     0.0000     0.0000 </r>
        <r>     6.7934     0.0000     0.3632     0.4085     0.0454     0.0000     0.0000     0.0000     0.0000     0.0000 </r>
        <r>     6.9371     0.0000     0.0000     0.0000     0.0000     0.0000     0.0000     0.0000     0.0000     0.0000 </r>
        <r>     7.0807     0.0000     0.0000     0.0000     0.0000     0.0000     0.0000     0.0000     0.0000     0.0000 </r>
        <r>     7.2244     0.0000     0.0000     0.0000     0.0000     0.0000     0.0000     0.0000     0.0000     0.0000 </r>
        <r>     7.3680     0.0000     0.0000     0.0000     0.0000     0.0000     0.0000     0.0000     0.0000     0.0000 </r>
        <r>     7.5117     0.0000     0.0000     0.0000     0.0000     0.0000     0.0000     0.0000     0.0000     0.0000 </r>
        <r>     7.6553     0.0000     0.0000     0.0000     0.0000     0.0000     0.0000     0.0000     0.0000     0.0000 </r>
        <r>     7.7990     0.0000     0.0000     0.0000     0.0000     0.0000     0.0000     0.0000     0.0000     0.0000 </r>
        <r>     7.9426     0.0000     0.0000     0.0000     0.0000     0.0000     0.0000     0.0000     0.0000     0.0000 </r>
        <r>     8.0863     0.0000     0.0000     0.0000     0.0000     0.0000     0.0000     0.0000     0.0000     0.0000 </r>
        <r>     8.2299     0.0000     0.0000     0.0000     0.0000     0.0000     0.0000     0.0000     0.0000     0.0000 </r>
        <r>     8.3735     0.0000     0.0000     0.0000     0.0000     0.0000     0.0000     0.0000     0.0000     0.0000 </r>
        <r>     8.5172     0.0000     0.0000     0.0000     0.0000     0.0000     0.0000     0.0000     0.0000     0.0000 </r>
        <r>     8.6608     0.0000     0.0000     0.0000     0.0000     0.0000     0.0000     0.0000     0.0000     0.0000 </r>
        <r>     8.8045     0.0000     0.0000     0.0000     0.0000     0.0000     0.0000     0.0000     0.0000     0.0000 </r>
        <r>     8.9481     0.0000     0.0000     0.0000     0.0000     0.0000     0.0000     0.0000     0.0000     0.0000 </r>
        <r>     9.0918     0.0000     0.0000     0.0000     0.0000     0.0000     0.0000     0.0000     0.0000     0.0000 </r>
        <r>     9.2354     0.0000     0.0000     0.0000     0.0000     0.0000     0.0000     0.0000     0.0000     0.0000 </r>
        <r>     9.3791     0.0000     0.0350     0.0350     0.0350     0.0000     0.0000     0.0000     0.0000     0.0000 </r>
        <r>     9.5227     0.0000     0.6228     0.6228     0.6228     0.0000     0.0000     0.0000     0.0000     0.0000 </r>
        <r>     9.6664     0.0000     0.0048     0.0048     0.0048     0.0000     0.0000     0.0000     0.0000     0.0000 </r>
        <r>     9.8100     0.0000     0.0000     0.0000     0.0000     0.0000     0.0000     0.0000     0.0000     0.0000 </r>
        <r>     9.9537     0.0000     0.0000     0.0000     0.0000     0.0000     0.0000     0.0000     0.0000     0.0000 </r>
        <r>    10.0973     0.0000     0.0000     0.0000     0.0000     0.0000     0.0000     0.0000     0.0000     0.0000 </r>
        <r>    10.2410     0.0000     0.0000     0.0000     0.0000     0.0000     0.0000     0.0000     0.0000     0.0000 </r>
        <r>    10.3846     0.0000     0.0000     0.0000     0.0000     0.0000     0.0000     0.0000     0.0000     0.0000 </r>
        <r>    10.5283     0.0000     0.0000     0.0000     0.0000     0.0000     0.0000     0.0000     0.0000     0.0000 </r>
        <r>    10.6719     0.0000     0.0000     0.0000     0.0000     0.0000     0.0000     0.0000     0.0000     0.0000 </r>
        <r>    10.8155     0.0000     0.0000     0.0000     0.0000     0.0000     0.0000     0.0000     0.0000     0.0000 </r>
        <r>    10.9592     0.0000     0.0000     0.0000     0.0000     0.0000     0.0000     0.0000     0.0000     0.0000 </r>
        <r>    11.1028     0.0000     0.0000     0.0000     0.0000     0.0000     0.0000     0.0000     0.0000     0.0000 </r>
        <r>    11.2465     0.0000     0.0000     0.0000     0.0000     0.0000     0.0000     0.0000     0.0000     0.0000 </r>
        <r>    11.3901     0.0000     0.0000     0.0000     0.0000     0.0000     0.0000     0.0000     0.0000     0.0000 </r>
        <r>    11.5338     0.0000     0.0000     0.0000     0.0000     0.0000     0.0000     0.0000     0.0000     0.0000 </r>
        <r>    11.6774     0.0000     0.0000     0.0000     0.0000     0.0000     0.0000     0.0000     0.0000     0.0000 </r>
        <r>    11.8211     0.0000     0.0000     0.0000     0.0000     0.0000     0.0000     0.0000     0.0000     0.0000 </r>
        <r>    11.9647     0.0000     0.0000     0.0000     0.0000     0.0000     0.0000     0.0000     0.0000     0.0000 </r>
        <r>    12.1084     0.0000     0.0000     0.0000     0.0000     0.0000     0.0000     0.0000     0.0000     0.0000 </r>
        <r>    12.2520     0.0000     0.0000     0.0000     0.0000     0.0000     0.0000     0.0000     0.0000     0.0000 </r>
        <r>    12.3957     0.0000     0.0000     0.0000     0.0000     0.0000     0.0000     0.0000     0.0000     0.0000 </r>
        <r>    12.5393     0.0000     0.0000     0.0000     0.0000     0.0000     0.0000     0.0000     0.0000     0.0000 </r>
        <r>    12.6830     0.0000     0.0000     0.0000     0.0000     0.0000     0.0000     0.0000     0.0000     0.0000 </r>
        <r>    12.8266     0.0000     0.0000     0.0000     0.0000     0.0000     0.0000     0.0000     0.0000     0.0000 </r>
        <r>    12.9702     0.0000     0.0000     0.0000     0.0000     0.0000     0.0000     0.0000     0.0000     0.0000 </r>
        <r>    13.1139     0.0000     0.0000     0.0000     0.0000     0.0000     0.0000     0.0000     0.0000     0.0000 </r>
        <r>    13.2575     0.0000     0.0000     0.0000     0.0000     0.0000     0.0000     0.0000     0.0000     0.0000 </r>
        <r>    13.4012     0.0000     0.0000     0.0000     0.0000     0.0000     0.0000     0.0000     0.0000     0.0000 </r>
        <r>    13.5448     0.0000     0.0000     0.0000     0.0000     0.0000     0.0000     0.0000     0.0000     0.0000 </r>
        <r>    13.6885     0.0000     0.0000     0.0000     0.0000     0.0000     0.0000     0.0000     0.0000     0.0000 </r>
        <r>    13.8321     0.0000     0.0000     0.0000     0.0000     0.0000     0.0000     0.0000     0.0000     0.0000 </r>
        <r>    13.9758     0.0000     0.0000     0.0000     0.0000     0.0000     0.0000     0.0000     0.0000     0.0000 </r>
        <r>    14.1194     0.0000     0.0000     0.0000     0.0000     0.0000     0.0000     0.0000     0.0000     0.0000 </r>
        <r>    14.2631     0.0000     0.0000     0.0000     0.0000     0.0000     0.0000     0.0000     0.0000     0.0000 </r>
        <r>    14.4067     0.0000     0.0000     0.0000     0.0000     0.0000     0.0000     0.0000     0.0000     0.0000 </r>
        <r>    14.5504     0.0000     0.0000     0.0000     0.0000     0.0000     0.0000     0.0000     0.0000     0.0000 </r>
        <r>    14.6940     0.0000     0.0000     0.0000     0.0000     0.0000     0.0000     0.0000     0.0000     0.0000 </r>
        <r>    14.8377     0.0000     0.0000     0.0000     0.0000     0.0000     0.0000     0.0000     0.0000     0.0000 </r>
        <r>    14.9813     0.5327     0.0961     0.0000     0.1921     0.0000     0.0000     0.0000     0.0000     0.0000 </r>
        <r>    15.1250     0.6201     0.1118     0.0000     0.2237     0.0000     0.0000     0.0000     0.0000     0.0000 </r>
        <r>    15.2686     0.0000     0.0000     0.0000     0.0000     0.0000     0.0000     0.0000     0.0000     0.0000 </r>
        <r>    15.4122     0.0000     0.1719     0.1719     0.1719     0.0000     0.0000     0.0000     0.0000     0.0000 </r>
        <r>    15.5559     0.0000     0.3493     0.3492     0.3493     0.0000     0.0000     0.0000     0.0000     0.0000 </r>
        <r>    15.6995     0.0000     0.0001     0.0001     0.0001     0.0000     0.0000     0.0000     0.0000     0.0000 </r>
        <r>    15.8432     0.0000     0.0000     0.0000     0.0000     0.0000     0.0000     0.0000     0.0000     0.0000 </r>
        <r>    15.9868     0.0000     0.0000     0.0000     0.0000     0.0000     0.0000     0.0000     0.0000     0.0000 </r>
        <r>    16.1305     0.0000     0.0000     0.0000     0.0000     0.0000     0.0000     0.0000     0.0000     0.0000 </r>
        <r>    16.2741     0.0000     0.0000     0.0000     0.0000     0.0000     0.0000     0.0000     0.0000     0.0000 </r>
        <r>    16.4178     0.0000     0.0000     0.0000     0.0000     0.0000     0.0000     0.0000     0.0000     0.0000 </r>
        <r>    16.5614     0.0000     0.0000     0.0000     0.0000     0.0000     0.0000     0.0000     0.0000     0.0000 </r>
        <r>    16.7051     0.0000     0.0000     0.0000     0.0000     0.0000     0.0000     0.0000     0.0000     0.0000 </r>
        <r>    16.8487     0.0000     0.0000     0.0000     0.0000     0.0000     0.0000     0.0000     0.0000     0.0000 </r>
        <r>    16.9924     0.0000     0.0000     0.0000     0.0000     0.0000     0.0000     0.0000     0.0000     0.0000 </r>
        <r>    17.1360     0.0000     0.0000     0.0000     0.0000     0.0000     0.0000     0.0000     0.0000     0.0000 </r>
        <r>    17.2797     0.0000     0.0000     0.0000     0.0000     0.0000     0.0000     0.0000     0.0000     0.0000 </r>
        <r>    17.4233     0.0000     0.0000     0.0000     0.0000     0.0000     0.0000     0.0000     0.0000     0.0000 </r>
        <r>    17.5670     0.0000     0.0000     0.0000     0.0000     0.0000     0.0000     0.0000     0.0000     0.0000 </r>
        <r>    17.7106     0.0000     0.0000     0.0000     0.0000     0.0000     0.0000     0.0000     0.0000     0.0000 </r>
        <r>    17.8542     0.0000     0.0000     0.0000     0.0000     0.0000     0.0000     0.0000     0.0000     0.0000 </r>
        <r>    17.9979     0.0000     0.0000     0.0000     0.0000     0.0000     0.0000     0.0000     0.0000     0.0000 </r>
        <r>    18.1415     0.0000     0.0000     0.0000     0.0000     0.0000     0.0000     0.0000     0.0000     0.0000 </r>
        <r>    18.2852     0.0000     0.0152     0.0171     0.0019     0.0000     0.0000     0.0000     0.0000     0.0000 </r>
        <r>    18.4288     0.0000     1.5483     1.7419     0.1935     0.0000     0.0000     0.0000     0.0000     0.0000 </r>
        <r>    18.5725     0.0000     0.0714     0.0803     0.0089     0.0000     0.0000     0.0000     0.0000     0.0000 </r>
        <r>    18.7161     0.2395     0.0021     0.0000     0.0171     0.0000     0.0000     0.0000     0.0000     0.0000 </r>
        <r>    18.8598     1.6992     0.0152     0.0000     0.1216     0.0000     0.0000     0.0000     0.0000     0.0000 </r>
        <r>    19.0034     0.0036     0.0000     0.0000     0.0003     0.0000     0.0000     0.0000     0.0000     0.0000 </r>
        <r>    19.1471     0.0000     0.0000     0.0000     0.0000     0.0000     0.0000     0.0000     0.0000     0.0000 </r>
        <r>    19.2907     0.0000     0.0000     0.0000     0.0000     0.0000     0.0000     0.0000     0.0000     0.0000 </r>
        <r>    19.4344     0.0000     0.0000     0.0000     0.0000     0.0000     0.0000     0.0000     0.0000     0.0000 </r>
        <r>    19.5780     0.0000     0.0000     0.0000     0.0000     0.0000     0.0000     0.0000     0.0000     0.0000 </r>
        <r>    19.7217     0.0000     0.0000     0.0000     0.0000     0.0000     0.0000     0.0000     0.0000     0.0000 </r>
        <r>    19.8653     0.0000     0.0000     0.0000     0.0000     0.0000     0.0000     0.0000     0.0000     0.0000 </r>
        <r>    20.0089     0.0000     0.0000     0.0000     0.0000     0.0000     0.0000     0.0000     0.0000     0.0000 </r>
        <r>    20.1526     0.0000     0.0000     0.0000     0.0000     0.0000     0.0000     0.0000     0.0000     0.0000 </r>
        <r>    20.2962     0.0000     0.0000     0.0000     0.0000     0.0000     0.0000     0.0000     0.0000     0.0000 </r>
        <r>    20.4399     0.0000     0.0000     0.0000     0.0000     0.0000     0.0000     0.0000     0.0000     0.0000 </r>
        <r>    20.5835     0.0000     0.0000     0.0000     0.0000     0.0000     0.0000     0.0000     0.0000     0.0000 </r>
        <r>    20.7272     0.0000     0.0000     0.0000     0.0000     0.0000     0.0000     0.0000     0.0000     0.0000 </r>
        <r>    20.8708     0.0000     0.0000     0.0000     0.0000     0.0000     0.0000     0.0000     0.0000     0.0000 </r>
        <r>    21.0145     0.0000     0.0000     0.0000     0.0000     0.0000     0.0000     0.0000     0.0000     0.0000 </r>
        <r>    21.1581     0.0000     0.0000     0.0000     0.0000     0.0000     0.0000     0.0000     0.0000     0.0000 </r>
        <r>    21.3018     0.0000     0.0000     0.0000     0.0000     0.0000     0.0000     0.0000     0.0000     0.0000 </r>
        <r>    21.4454     0.0000     0.0000     0.0000     0.0000     0.0000     0.0000     0.0000     0.0000     0.0000 </r>
        <r>    21.5891     0.0000     0.0000     0.0000     0.0000     0.0000     0.0000     0.0000     0.0000     0.0000 </r>
        <r>    21.7327     0.0000     0.0000     0.0000     0.0000     0.0000     0.0000     0.0000     0.0000     0.0000 </r>
        <r>    21.8764     0.0000     0.0000     0.0000     0.0000     0.0000     0.0000     0.0000     0.0000     0.0000 </r>
        <r>    22.0200     0.0000     0.0000     0.0000     0.0000     0.0000     0.0000     0.0000     0.0000     0.0000 </r>
        <r>    22.1637     0.0000     0.0000     0.0000     0.0000     0.0000     0.0000     0.0000     0.0000     0.0000 </r>
        <r>    22.3073     0.0000     0.0000     0.0000     0.0000     0.0000     0.0000     0.0000     0.0000     0.0000 </r>
        <r>    22.4509     0.0000     0.0000     0.0000     0.0000     0.0000     0.0000     0.0000     0.0000     0.0000 </r>
        <r>    22.5946     0.0000     0.0000     0.0000     0.0000     0.0000     0.0000     0.0000     0.0000     0.0000 </r>
        <r>    22.7382     0.0000     0.0000     0.0000     0.0000     0.0000     0.0000     0.0000     0.0000     0.0000 </r>
        <r>    22.8819     0.0000     0.0000     0.0000     0.0000     0.0000     0.0000     0.0000     0.0000     0.0000 </r>
        <r>    23.0255     0.0000     0.0000     0.0000     0.0000     0.0000     0.0000     0.0000     0.0000     0.0000 </r>
        <r>    23.1692     0.0000     0.0000     0.0000     0.0000     0.0000     0.0000     0.0000     0.0000     0.0000 </r>
        <r>    23.3128     0.2330     0.0000     0.0000     0.0000     0.0000     0.0000     0.0000     0.0000     0.0000 </r>
        <r>    23.4565     0.4559     0.0000     0.0000     0.0000     0.0000     0.0000     0.0000     0.0000     0.0000 </r>
        <r>    23.6001     0.0001     0.0000     0.0000     0.0000     0.0000     0.0000     0.0000     0.0000     0.0000 </r>
        <r>    23.7438     0.0000     0.0000     0.0000     0.0000     0.0000     0.0000     0.0000     0.0000     0.0000 </r>
        <r>    23.8874     0.0000     0.0000     0.0000     0.0000     0.0000     0.0000     0.0000     0.0000     0.0000 </r>
        <r>    24.0311     0.0000     0.0000     0.0000     0.0000     0.0000     0.0000     0.0000     0.0000     0.0000 </r>
        <r>    24.1747     0.0000     0.0000     0.0000     0.0000     0.0000     0.0000     0.0000     0.0000     0.0000 </r>
        <r>    24.3184     0.0000     0.0000     0.0000     0.0000     0.0000     0.0000     0.0000     0.0000     0.0000 </r>
        <r>    24.4620     0.0000     0.0000     0.0000     0.0000     0.0000     0.0000     0.0000     0.0000     0.0000 </r>
        <r>    24.6057     0.0000     0.0000     0.0000     0.0000     0.0000     0.0000     0.0000     0.0000     0.0000 </r>
        <r>    24.7493     0.0000     0.0000     0.0000     0.0000     0.0000     0.0000     0.0000     0.0000     0.0000 </r>
        <r>    24.8929     0.0000     0.0000     0.0000     0.0000     0.0000     0.0000     0.0000     0.0000     0.0000 </r>
        <r>    25.0366     0.0000     0.0000     0.0000     0.0000     0.0000     0.0000     0.0000     0.0000     0.0000 </r>
        <r>    25.1802     0.0000     0.0000     0.0000     0.0000     0.0000     0.0000     0.0000     0.0000     0.0000 </r>
        <r>    25.3239     0.0000     0.0000     0.0000     0.0000     0.0000     0.0000     0.0000     0.0000     0.0000 </r>
        <r>    25.4675     0.0000     0.0000     0.0000     0.0000     0.0000     0.0000     0.0000     0.0000     0.0000 </r>
        <r>    25.6112     0.0000     0.0000     0.0000     0.0000     0.0000     0.0000     0.0000     0.0000     0.0000 </r>
        <r>    25.7548     0.0000     0.0000     0.0000     0.0000     0.0000     0.0000     0.0000     0.0000     0.0000 </r>
        <r>    25.8985     0.0000     0.0000     0.0000     0.0000     0.0000     0.0000     0.0000     0.0000     0.0000 </r>
        <r>    26.0421     0.0000     0.0000     0.0000     0.0000     0.0000     0.0000     0.0000     0.0000     0.0000 </r>
        <r>    26.1858     0.0000     0.0000     0.0000     0.0000     0.0000     0.0000     0.0000     0.0000     0.0000 </r>
        <r>    26.3294     0.0000     0.0000     0.0000     0.0000     0.0000     0.0000     0.0000     0.0000     0.0000 </r>
        <r>    26.4731     0.0000     0.0000     0.0000     0.0000     0.0000     0.0000     0.0000     0.0000     0.0000 </r>
        <r>    26.6167     0.0010     0.0213     0.0000     0.1706     0.0000     0.0000     0.0000     0.0000     0.0000 </r>
        <r>    26.7604     0.0089     0.1823     0.0000     1.4587     0.0000     0.0000     0.0000     0.0000     0.0000 </r>
        <r>    26.9040     0.0000     0.0005     0.0000     0.0041     0.0000     0.0000     0.0000     0.0000     0.0000 </r>
        <r>    27.0476     0.0000     0.0000     0.0000     0.0000     0.0000     0.0000     0.0000     0.0000     0.0000 </r>
        <r>    27.1913     0.0000     0.1035     0.1555     0.0517     0.0000     0.0000     0.0000     0.0000     0.0000 </r>
        <r>    27.3349     0.0000     1.3725     2.0586     0.6863     0.0000     0.0000     0.0000     0.0000     0.0000 </r>
        <r>    27.4786     0.0000     0.0072     0.0108     0.0036     0.0000     0.0000     0.0000     0.0000     0.0000 </r>
        <r>    27.6222     0.0000     0.0000     0.0000     0.0000     0.0000     0.0000     0.0000     0.0000     0.0000 </r>
        <r>    27.7659     0.0000     0.0000     0.0000     0.0000     0.0000     0.0000     0.0000     0.0000     0.0000 </r>
        <r>    27.9095     0.0000     0.0000     0.0000     0.0000     0.0000     0.0000     0.0000     0.0000     0.0000 </r>
        <r>    28.0532     0.0000     0.0000     0.0000     0.0000     0.0000     0.0000     0.0000     0.0000     0.0000 </r>
        <r>    28.1968     0.0000     0.0000     0.0000     0.0000     0.0000     0.0000     0.0000     0.0000     0.0000 </r>
        <r>    28.3405     0.0000     0.0000     0.0000     0.0000     0.0000     0.0000     0.0000     0.0000     0.0000 </r>
        <r>    28.4841     0.0000     0.0000     0.0000     0.0000     0.0000     0.0000     0.0000     0.0000     0.0000 </r>
        <r>    28.6278     0.0000     0.0000     0.0000     0.0000     0.0000     0.0000     0.0000     0.0000     0.0000 </r>
        <r>    28.7714     0.0000     0.0000     0.0000     0.0000     0.0000     0.0000     0.0000     0.0000     0.0000 </r>
        <r>    28.9151     0.0000     0.0000     0.0000     0.0000     0.0000     0.0000     0.0000     0.0000     0.0000 </r>
        <r>    29.0587     0.0000     0.0000     0.0000     0.0000     0.0000     0.0000     0.0000     0.0000     0.0000 </r>
        <r>    29.2024     0.0000     0.0000     0.0000     0.0000     0.0000     0.0000     0.0000     0.0000     0.0000 </r>
       </set>
      </set>
      <set comment="ion 2">
       <set comment="spin 1">
        <r>   -13.8917     0.0000     0.0000     0.0000     0.0000     0.0000     0.0000     0.0000     0.0000     0.0000 </r>
        <r>   -13.7481     0.0000     0.0000     0.0000     0.0000     0.0000     0.0000     0.0000     0.0000     0.0000 </r>
        <r>   -13.6044     0.0000     0.0000     0.0000     0.0000     0.0000     0.0000     0.0000     0.0000     0.0000 </r>
        <r>   -13.4608     0.0000     0.0000     0.0000     0.0000     0.0000     0.0000     0.0000     0.0000     0.0000 </r>
        <r>   -13.3171     0.0000     0.0000     0.0000     0.0000     0.0000     0.0000     0.0000     0.0000     0.0000 </r>
        <r>   -13.1735     0.0000     0.0000     0.0000     0.0000     0.0000     0.0000     0.0000     0.0000     0.0000 </r>
        <r>   -13.0298     0.0000     0.0000     0.0000     0.0000     0.0000     0.0000     0.0000     0.0000     0.0000 </r>
        <r>   -12.8862     0.0000     0.0000     0.0000     0.0000     0.0000     0.0000     0.0000     0.0000     0.0000 </r>
        <r>   -12.7426     0.0000     0.0000     0.0000     0.0000     0.0000     0.0000     0.0000     0.0000     0.0000 </r>
        <r>   -12.5989     0.0000     0.0000     0.0000     0.0000     0.0000     0.0000     0.0000     0.0000     0.0000 </r>
        <r>   -12.4553     0.0000     0.0000     0.0000     0.0000     0.0000     0.0000     0.0000     0.0000     0.0000 </r>
        <r>   -12.3116     0.0000     0.0000     0.0000     0.0000     0.0000     0.0000     0.0000     0.0000     0.0000 </r>
        <r>   -12.1680     0.0000     0.0000     0.0000     0.0000     0.0000     0.0000     0.0000     0.0000     0.0000 </r>
        <r>   -12.0243     0.0024     0.0000     0.0000     0.0000     0.0000     0.0000     0.0000     0.0000     0.0000 </r>
        <r>   -11.8807     0.4583     0.0000     0.0000     0.0000     0.0000     0.0000     0.0000     0.0000     0.0000 </r>
        <r>   -11.7370     0.0346     0.0000     0.0000     0.0000     0.0000     0.0000     0.0000     0.0000     0.0000 </r>
        <r>   -11.5934     0.0000     0.0000     0.0000     0.0000     0.0000     0.0000     0.0000     0.0000     0.0000 </r>
        <r>   -11.4497     0.0000     0.0000     0.0000     0.0000     0.0000     0.0000     0.0000     0.0000     0.0000 </r>
        <r>   -11.3061     0.0000     0.0000     0.0000     0.0000     0.0000     0.0000     0.0000     0.0000     0.0000 </r>
        <r>   -11.1624     0.0000     0.0000     0.0000     0.0000     0.0000     0.0000     0.0000     0.0000     0.0000 </r>
        <r>   -11.0188     0.0000     0.0000     0.0000     0.0000     0.0000     0.0000     0.0000     0.0000     0.0000 </r>
        <r>   -10.8751     0.0000     0.0000     0.0000     0.0000     0.0000     0.0000     0.0000     0.0000     0.0000 </r>
        <r>   -10.7315     0.0000     0.0000     0.0000     0.0000     0.0000     0.0000     0.0000     0.0000     0.0000 </r>
        <r>   -10.5878     0.0000     0.0000     0.0000     0.0000     0.0000     0.0000     0.0000     0.0000     0.0000 </r>
[...]
        <r>    15.9868     0.0000     0.0000     0.0000     0.0000     0.0000     0.0000     0.0000     0.0000     0.0000 </r>
        <r>    16.1305     0.0000     0.0000     0.0000     0.0000     0.0000     0.0000     0.0000     0.0000     0.0000 </r>
        <r>    16.2741     0.0000     0.0000     0.0000     0.0000     0.0000     0.0000     0.0000     0.0000     0.0000 </r>
        <r>    16.4178     0.0000     0.0000     0.0000     0.0000     0.0000     0.0000     0.0000     0.0000     0.0000 </r>
        <r>    16.5614     0.0000     0.0000     0.0000     0.0000     0.0000     0.0000     0.0000     0.0000     0.0000 </r>
        <r>    16.7051     0.0000     0.0000     0.0000     0.0000     0.0000     0.0000     0.0000     0.0000     0.0000 </r>
        <r>    16.8487     0.0000     0.0000     0.0000     0.0000     0.0000     0.0000     0.0000     0.0000     0.0000 </r>
        <r>    16.9924     0.0000     0.0000     0.0000     0.0000     0.0000     0.0000     0.0000     0.0000     0.0000 </r>
        <r>    17.1360     0.0000     0.0000     0.0000     0.0000     0.0000     0.0000     0.0000     0.0000     0.0000 </r>
        <r>    17.2797     0.0000     0.0000     0.0000     0.0000     0.0000     0.0000     0.0000     0.0000     0.0000 </r>
        <r>    17.4233     0.0000     0.0000     0.0000     0.0000     0.0000     0.0000     0.0000     0.0000     0.0000 </r>
        <r>    17.5670     0.0000     0.0000     0.0000     0.0000     0.0000     0.0000     0.0000     0.0000     0.0000 </r>
        <r>    17.7106     0.0000     0.0000     0.0000     0.0000     0.0000     0.0000     0.0000     0.0000     0.0000 </r>
        <r>    17.8542     0.0000     0.0000     0.0000     0.0000     0.0000     0.0000     0.0000     0.0000     0.0000 </r>
        <r>    17.9979     0.0000     0.0000     0.0000     0.0000     0.0000     0.0000     0.0000     0.0000     0.0000 </r>
        <r>    18.1415     0.0000     0.0000     0.0000     0.0000     0.0000     0.0000     0.0000     0.0000     0.0000 </r>
        <r>    18.2852     0.0000     0.0152     0.0171     0.0019     0.0000     0.0000     0.0000     0.0000     0.0000 </r>
        <r>    18.4288     0.0000     1.5483     1.7419     0.1935     0.0000     0.0000     0.0000     0.0000     0.0000 </r>
        <r>    18.5725     0.0000     0.0714     0.0803     0.0089     0.0000     0.0000     0.0000     0.0000     0.0000 </r>
        <r>    18.7161     0.2395     0.0021     0.0000     0.0171     0.0000     0.0000     0.0000     0.0000     0.0000 </r>
        <r>    18.8598     1.6992     0.0152     0.0000     0.1216     0.0000     0.0000     0.0000     0.0000     0.0000 </r>
        <r>    19.0034     0.0036     0.0000     0.0000     0.0003     0.0000     0.0000     0.0000     0.0000     0.0000 </r>
        <r>    19.1471     0.0000     0.0000     0.0000     0.0000     0.0000     0.0000     0.0000     0.0000     0.0000 </r>
        <r>    19.2907     0.0000     0.0000     0.0000     0.0000     0.0000     0.0000     0.0000     0.0000     0.0000 </r>
        <r>    19.4344     0.0000     0.0000     0.0000     0.0000     0.0000     0.0000     0.0000     0.0000     0.0000 </r>
        <r>    19.5780     0.0000     0.0000     0.0000     0.0000     0.0000     0.0000     0.0000     0.0000     0.0000 </r>
        <r>    19.7217     0.0000     0.0000     0.0000     0.0000     0.0000     0.0000     0.0000     0.0000     0.0000 </r>
        <r>    19.8653     0.0000     0.0000     0.0000     0.0000     0.0000     0.0000     0.0000     0.0000     0.0000 </r>
        <r>    20.0089     0.0000     0.0000     0.0000     0.0000     0.0000     0.0000     0.0000     0.0000     0.0000 </r>
        <r>    20.1526     0.0000     0.0000     0.0000     0.0000     0.0000     0.0000     0.0000     0.0000     0.0000 </r>
        <r>    20.2962     0.0000     0.0000     0.0000     0.0000     0.0000     0.0000     0.0000     0.0000     0.0000 </r>
        <r>    20.4399     0.0000     0.0000     0.0000     0.0000     0.0000     0.0000     0.0000     0.0000     0.0000 </r>
        <r>    20.5835     0.0000     0.0000     0.0000     0.0000     0.0000     0.0000     0.0000     0.0000     0.0000 </r>
        <r>    20.7272     0.0000     0.0000     0.0000     0.0000     0.0000     0.0000     0.0000     0.0000     0.0000 </r>
        <r>    20.8708     0.0000     0.0000     0.0000     0.0000     0.0000     0.0000     0.0000     0.0000     0.0000 </r>
        <r>    21.0145     0.0000     0.0000     0.0000     0.0000     0.0000     0.0000     0.0000     0.0000     0.0000 </r>
        <r>    21.1581     0.0000     0.0000     0.0000     0.0000     0.0000     0.0000     0.0000     0.0000     0.0000 </r>
        <r>    21.3018     0.0000     0.0000     0.0000     0.0000     0.0000     0.0000     0.0000     0.0000     0.0000 </r>
        <r>    21.4454     0.0000     0.0000     0.0000     0.0000     0.0000     0.0000     0.0000     0.0000     0.0000 </r>
        <r>    21.5891     0.0000     0.0000     0.0000     0.0000     0.0000     0.0000     0.0000     0.0000     0.0000 </r>
        <r>    21.7327     0.0000     0.0000     0.0000     0.0000     0.0000     0.0000     0.0000     0.0000     0.0000 </r>
        <r>    21.8764     0.0000     0.0000     0.0000     0.0000     0.0000     0.0000     0.0000     0.0000     0.0000 </r>
        <r>    22.0200     0.0000     0.0000     0.0000     0.0000     0.0000     0.0000     0.0000     0.0000     0.0000 </r>
        <r>    22.1637     0.0000     0.0000     0.0000     0.0000     0.0000     0.0000     0.0000     0.0000     0.0000 </r>
        <r>    22.3073     0.0000     0.0000     0.0000     0.0000     0.0000     0.0000     0.0000     0.0000     0.0000 </r>
        <r>    22.4509     0.0000     0.0000     0.0000     0.0000     0.0000     0.0000     0.0000     0.0000     0.0000 </r>
        <r>    22.5946     0.0000     0.0000     0.0000     0.0000     0.0000     0.0000     0.0000     0.0000     0.0000 </r>
        <r>    22.7382     0.0000     0.0000     0.0000     0.0000     0.0000     0.0000     0.0000     0.0000     0.0000 </r>
        <r>    22.8819     0.0000     0.0000     0.0000     0.0000     0.0000     0.0000     0.0000     0.0000     0.0000 </r>
        <r>    23.0255     0.0000     0.0000     0.0000     0.0000     0.0000     0.0000     0.0000     0.0000     0.0000 </r>
        <r>    23.1692     0.0000     0.0000     0.0000     0.0000     0.0000     0.0000     0.0000     0.0000     0.0000 </r>
        <r>    23.3128     0.2330     0.0000     0.0000     0.0000     0.0000     0.0000     0.0000     0.0000     0.0000 </r>
        <r>    23.4565     0.4559     0.0000     0.0000     0.0000     0.0000     0.0000     0.0000     0.0000     0.0000 </r>
        <r>    23.6001     0.0001     0.0000     0.0000     0.0000     0.0000     0.0000     0.0000     0.0000     0.0000 </r>
        <r>    23.7438     0.0000     0.0000     0.0000     0.0000     0.0000     0.0000     0.0000     0.0000     0.0000 </r>
        <r>    23.8874     0.0000     0.0000     0.0000     0.0000     0.0000     0.0000     0.0000     0.0000     0.0000 </r>
        <r>    24.0311     0.0000     0.0000     0.0000     0.0000     0.0000     0.0000     0.0000     0.0000     0.0000 </r>
        <r>    24.1747     0.0000     0.0000     0.0000     0.0000     0.0000     0.0000     0.0000     0.0000     0.0000 </r>
        <r>    24.3184     0.0000     0.0000     0.0000     0.0000     0.0000     0.0000     0.0000     0.0000     0.0000 </r>
        <r>    24.4620     0.0000     0.0000     0.0000     0.0000     0.0000     0.0000     0.0000     0.0000     0.0000 </r>
        <r>    24.6057     0.0000     0.0000     0.0000     0.0000     0.0000     0.0000     0.0000     0.0000     0.0000 </r>
        <r>    24.7493     0.0000     0.0000     0.0000     0.0000     0.0000     0.0000     0.0000     0.0000     0.0000 </r>
        <r>    24.8929     0.0000     0.0000     0.0000     0.0000     0.0000     0.0000     0.0000     0.0000     0.0000 </r>
        <r>    25.0366     0.0000     0.0000     0.0000     0.0000     0.0000     0.0000     0.0000     0.0000     0.0000 </r>
        <r>    25.1802     0.0000     0.0000     0.0000     0.0000     0.0000     0.0000     0.0000     0.0000     0.0000 </r>
        <r>    25.3239     0.0000     0.0000     0.0000     0.0000     0.0000     0.0000     0.0000     0.0000     0.0000 </r>
        <r>    25.4675     0.0000     0.0000     0.0000     0.0000     0.0000     0.0000     0.0000     0.0000     0.0000 </r>
        <r>    25.6112     0.0000     0.0000     0.0000     0.0000     0.0000     0.0000     0.0000     0.0000     0.0000 </r>
        <r>    25.7548     0.0000     0.0000     0.0000     0.0000     0.0000     0.0000     0.0000     0.0000     0.0000 </r>
        <r>    25.8985     0.0000     0.0000     0.0000     0.0000     0.0000     0.0000     0.0000     0.0000     0.0000 </r>
        <r>    26.0421     0.0000     0.0000     0.0000     0.0000     0.0000     0.0000     0.0000     0.0000     0.0000 </r>
        <r>    26.1858     0.0000     0.0000     0.0000     0.0000     0.0000     0.0000     0.0000     0.0000     0.0000 </r>
        <r>    26.3294     0.0000     0.0000     0.0000     0.0000     0.0000     0.0000     0.0000     0.0000     0.0000 </r>
        <r>    26.4731     0.0000     0.0000     0.0000     0.0000     0.0000     0.0000     0.0000     0.0000     0.0000 </r>
        <r>    26.6167     0.0010     0.0213     0.0000     0.1706     0.0000     0.0000     0.0000     0.0000     0.0000 </r>
        <r>    26.7604     0.0089     0.1823     0.0000     1.4587     0.0000     0.0000     0.0000     0.0000     0.0000 </r>
        <r>    26.9040     0.0000     0.0005     0.0000     0.0041     0.0000     0.0000     0.0000     0.0000     0.0000 </r>
        <r>    27.0476     0.0000     0.0000     0.0000     0.0000     0.0000     0.0000     0.0000     0.0000     0.0000 </r>
        <r>    27.1913     0.0000     0.1035     0.1555     0.0517     0.0000     0.0000     0.0000     0.0000     0.0000 </r>
        <r>    27.3349     0.0000     1.3725     2.0586     0.6863     0.0000     0.0000     0.0000     0.0000     0.0000 </r>
        <r>    27.4786     0.0000     0.0072     0.0108     0.0036     0.0000     0.0000     0.0000     0.0000     0.0000 </r>
        <r>    27.6222     0.0000     0.0000     0.0000     0.0000     0.0000     0.0000     0.0000     0.0000     0.0000 </r>
        <r>    27.7659     0.0000     0.0000     0.0000     0.0000     0.0000     0.0000     0.0000     0.0000     0.0000 </r>
        <r>    27.9095     0.0000     0.0000     0.0000     0.0000     0.0000     0.0000     0.0000     0.0000     0.0000 </r>
        <r>    28.0532     0.0000     0.0000     0.0000     0.0000     0.0000     0.0000     0.0000     0.0000     0.0000 </r>
        <r>    28.1968     0.0000     0.0000     0.0000     0.0000     0.0000     0.0000     0.0000     0.0000     0.0000 </r>
        <r>    28.3405     0.0000     0.0000     0.0000     0.0000     0.0000     0.0000     0.0000     0.0000     0.0000 </r>
        <r>    28.4841     0.0000     0.0000     0.0000     0.0000     0.0000     0.0000     0.0000     0.0000     0.0000 </r>
        <r>    28.6278     0.0000     0.0000     0.0000     0.0000     0.0000     0.0000     0.0000     0.0000     0.0000 </r>
        <r>    28.7714     0.0000     0.0000     0.0000     0.0000     0.0000     0.0000     0.0000     0.0000     0.0000 </r>
        <r>    28.9151     0.0000     0.0000     0.0000     0.0000     0.0000     0.0000     0.0000     0.0000     0.0000 </r>
        <r>    29.0587     0.0000     0.0000     0.0000     0.0000     0.0000     0.0000     0.0000     0.0000     0.0000 </r>
        <r>    29.2024     0.0000     0.0000     0.0000     0.0000     0.0000     0.0000     0.0000     0.0000     0.0000 </r>
       </set>
      </set>
     </set>
    </array>
   </partial>
  </dos>
  <projected>
   <eigenvalues>
    <array>
     <dimension dim="1">band</dimension>
     <dimension dim="2">kpoint</dimension>
     <dimension dim="3">spin</dimension>
     <field>eigene</field>
     <field>occ</field>
     <set>
      <set comment="spin 1">
       <set comment="kpoint 1">
        <r>  -11.9329    1.0000 </r>
        <r>    9.4363    1.0000 </r>
        <r>    9.4363    1.0000 </r>
        <r>    9.4363    1.0000 </r>
        <r>   15.4278    0.0000 </r>
        <r>   15.4278    0.0000 </r>
        <r>   15.4278    0.0000 </r>
        <r>   23.3276    0.0000 </r>
       </set>
       <set comment="kpoint 2">
        <r>   -6.3187    1.0000 </r>
        <r>   -3.6922    1.0000 </r>
        <r>    6.6146    1.0000 </r>
        <r>    6.6146    1.0000 </r>
        <r>   18.3684    0.0000 </r>
        <r>   18.3684    0.0000 </r>
        <r>   18.7571    0.0000 </r>
        <r>   26.6611    0.0000 </r>
       </set>
       <set comment="kpoint 3">
        <r>   -3.3072    1.0000 </r>
        <r>   -3.3072    1.0000 </r>
        <r>    3.2132    1.0000 </r>
        <r>    3.2132    1.0000 </r>
        <r>   14.9847    0.0000 </r>
        <r>   14.9847    0.0000 </r>
        <r>   27.2435    0.0000 </r>
        <r>   27.2435    0.0000 </r>
       </set>
      </set>
     </set>
    </array>
   </eigenvalues>
   <array>
    <dimension dim="1">ion</dimension>
    <dimension dim="2">band</dimension>
    <dimension dim="3">kpoint</dimension>
    <dimension dim="4">spin</dimension>
    <field>    s</field>
    <field>   py</field>
    <field>   pz</field>
    <field>   px</field>
    <field>  dxy</field>
    <field>  dyz</field>
    <field>  dz2</field>
    <field>  dxz</field>
    <field>x2-y2</field>
    <set>
     <set comment="spin1">
      <set comment="kpoint 1">
       <set comment="band 1">
        <r>  0.2846  0.0000  0.0000  0.0000  0.0000  0.0000  0.0000  0.0000  0.0000 </r>
        <r>  0.2846  0.0000  0.0000  0.0000  0.0000  0.0000  0.0000  0.0000  0.0000 </r>
       </set>
       <set comment="band 2">
        <r>  0.0000  0.0471  0.2485  0.0851  0.0000  0.0000  0.0000  0.0000  0.0000 </r>
        <r>  0.0000  0.0471  0.2485  0.0851  0.0000  0.0000  0.0000  0.0000  0.0000 </r>
       </set>
       <set comment="band 3">
        <r>  0.0000  0.2306  0.1082  0.0419  0.0000  0.0000  0.0000  0.0000  0.0000 </r>
        <r>  0.0000  0.2306  0.1082  0.0419  0.0000  0.0000  0.0000  0.0000  0.0000 </r>
       </set>
       <set comment="band 4">
        <r>  0.0000  0.1030  0.0240  0.2537  0.0000  0.0000  0.0000  0.0000  0.0000 </r>
        <r>  0.0000  0.1030  0.0240  0.2537  0.0000  0.0000  0.0000  0.0000  0.0000 </r>
       </set>
       <set comment="band 5">
        <r>  0.0000  0.0228  0.1996  0.0772  0.0000  0.0000  0.0000  0.0000  0.0000 </r>
        <r>  0.0000  0.0228  0.1996  0.0772  0.0000  0.0000  0.0000  0.0000  0.0000 </r>
       </set>
       <set comment="band 6">
        <r>  0.0000  0.0460  0.0448  0.2087  0.0000  0.0000  0.0000  0.0000  0.0000 </r>
        <r>  0.0000  0.0460  0.0448  0.2087  0.0000  0.0000  0.0000  0.0000  0.0000 </r>
       </set>
       <set comment="band 7">
        <r>  0.0000  0.2307  0.0551  0.0136  0.0000  0.0000  0.0000  0.0000  0.0000 </r>
        <r>  0.0000  0.2307  0.0551  0.0136  0.0000  0.0000  0.0000  0.0000  0.0000 </r>
       </set>
       <set comment="band 8">
        <r>  0.3959  0.0000  0.0000  0.0000  0.0000  0.0000  0.0000  0.0000  0.0000 </r>
        <r>  0.3959  0.0000  0.0000  0.0000  0.0000  0.0000  0.0000  0.0000  0.0000 </r>
       </set>
      </set>
      <set comment="kpoint 2">
       <set comment="band 1">
        <r>  0.2975  0.0036  0.0000  0.0287  0.0000  0.0000  0.0000  0.0000  0.0000 </r>
        <r>  0.2975  0.0036  0.0000  0.0287  0.0000  0.0000  0.0000  0.0000  0.0000 </r>
       </set>
       <set comment="band 2">
        <r>  0.0835  0.0215  0.0000  0.1723  0.0000  0.0000  0.0000  0.0000  0.0000 </r>
        <r>  0.0835  0.0215  0.0000  0.1723  0.0000  0.0000  0.0000  0.0000  0.0000 </r>
       </set>
       <set comment="band 3">
        <r>  0.0000  0.0922  0.2637  0.0115  0.0000  0.0000  0.0000  0.0000  0.0000 </r>
        <r>  0.0000  0.0922  0.2637  0.0115  0.0000  0.0000  0.0000  0.0000  0.0000 </r>
       </set>
       <set comment="band 4">
        <r>  0.0000  0.2344  0.1037  0.0293  0.0000  0.0000  0.0000  0.0000  0.0000 </r>
        <r>  0.0000  0.2344  0.1037  0.0293  0.0000  0.0000  0.0000  0.0000  0.0000 </r>
       </set>
       <set comment="band 5">
        <r>  0.0000  0.0554  0.2019  0.0069  0.0000  0.0000  0.0000  0.0000  0.0000 </r>
        <r>  0.0000  0.0554  0.2019  0.0069  0.0000  0.0000  0.0000  0.0000  0.0000 </r>
       </set>
       <set comment="band 6">
        <r>  0.0000  0.1795  0.0623  0.0224  0.0000  0.0000  0.0000  0.0000  0.0000 </r>
        <r>  0.0000  0.1795  0.0623  0.0224  0.0000  0.0000  0.0000  0.0000  0.0000 </r>
       </set>
       <set comment="band 7">
        <r>  0.2790  0.0025  0.0000  0.0200  0.0000  0.0000  0.0000  0.0000  0.0000 </r>
        <r>  0.2790  0.0025  0.0000  0.0200  0.0000  0.0000  0.0000  0.0000  0.0000 </r>
       </set>
       <set comment="band 8">
        <r>  0.0014  0.0293  0.0000  0.2346  0.0000  0.0000  0.0000  0.0000  0.0000 </r>
        <r>  0.0014  0.0293  0.0000  0.2346  0.0000  0.0000  0.0000  0.0000  0.0000 </r>
       </set>
      </set>
      <set comment="kpoint 3">
       <set comment="band 1">
        <r>  0.2125  0.0377  0.0000  0.0754  0.0000  0.0000  0.0000  0.0000  0.0000 </r>
        <r>  0.2125  0.0377  0.0000  0.0754  0.0000  0.0000  0.0000  0.0000  0.0000 </r>
       </set>
       <set comment="band 2">
        <r>  0.2125  0.0377  0.0000  0.0754  0.0000  0.0000  0.0000  0.0000  0.0000 </r>
        <r>  0.2125  0.0377  0.0000  0.0754  0.0000  0.0000  0.0000  0.0000  0.0000 </r>
       </set>
       <set comment="band 3">
        <r>  0.0000  0.0000  0.3359  0.0000  0.0000  0.0000  0.0000  0.0000  0.0000 </r>
        <r>  0.0000  0.0000  0.3359  0.0000  0.0000  0.0000  0.0000  0.0000  0.0000 </r>
       </set>
       <set comment="band 4">
        <r>  0.0000  0.2239  0.0000  0.1120  0.0000  0.0000  0.0000  0.0000  0.0000 </r>
        <r>  0.0000  0.2239  0.0000  0.1120  0.0000  0.0000  0.0000  0.0000  0.0000 </r>
       </set>
       <set comment="band 5">
        <r>  0.1104  0.0199  0.0000  0.0398  0.0000  0.0000  0.0000  0.0000  0.0000 </r>
        <r>  0.1104  0.0199  0.0000  0.0398  0.0000  0.0000  0.0000  0.0000  0.0000 </r>
       </set>
       <set comment="band 6">
        <r>  0.1104  0.0199  0.0000  0.0398  0.0000  0.0000  0.0000  0.0000  0.0000 </r>
        <r>  0.1104  0.0199  0.0000  0.0398  0.0000  0.0000  0.0000  0.0000  0.0000 </r>
       </set>
       <set comment="band 7">
        <r>  0.0000  0.0000  0.4261  0.0000  0.0000  0.0000  0.0000  0.0000  0.0000 </r>
        <r>  0.0000  0.0000  0.4261  0.0000  0.0000  0.0000  0.0000  0.0000  0.0000 </r>
       </set>
       <set comment="band 8">
        <r>  0.0000  0.2841  0.0000  0.1420  0.0000  0.0000  0.0000  0.0000  0.0000 </r>
        <r>  0.0000  0.2841  0.0000  0.1420  0.0000  0.0000  0.0000  0.0000  0.0000 </r>
       </set>
      </set>
     </set>
    </set>
   </array>
  </projected>
 </calculation>
 <structure name="finalpos" >
  <crystal>
   <varray name="basis" >
    <v>       2.18050236       0.00000000       1.25891346 </v>
    <v>       0.72683412       2.05579703       1.25891346 </v>
    <v>       0.00000000       0.00000000       2.51782692 </v>
   </varray>
   <i name="volume">     11.28658789 </i>
   <varray name="rec_basis" >
    <v>       0.45860991      -0.16214311       0.00000000 </v>
    <v>       0.00000000       0.48642934       0.00000000 </v>
    <v>      -0.22930496      -0.16214311       0.39716789 </v>
   </varray>
  </crystal>
  <varray name="positions" >
   <v>       0.87500000       0.87500000       0.87500000 </v>
   <v>       0.12500000       0.12500000       0.12500000 </v>
  </varray>
 </structure>
</modeling>
