 vasp.5.4.4.18Apr17-6-g9f103f2a35 (build Jan 25 2021 16:16:55) complex          
  
 executed on             LinuxIFC date 2026.05.01  10:24:43
 running on    2 total cores
 distrk:  each k-point on    2 cores,    1 groups
 distr:  one band on NCORES_PER_BAND=   1 cores,    2 groups


--------------------------------------------------------------------------------------------------------


 INCAR:
 POTCAR:    PAW_PBE Ag 02Apr2005                  
 POTCAR:    PAW_PBE Sb 06Sep2000                  
 POTCAR:    PAW_PBE S 06Sep2000                   
 POTCAR:    PAW_PBE Ag 02Apr2005                  
   SHA256 =  6550cfa3543261e132c169e1b98a529204624d72be14e2da2e0242bcb74a174d Ag
   COPYR  = (c) Copyright 02Apr2005 Georg Kresse                                
   COPYR  = This file is part of the software VASP. Any use, copying, and all ot
   COPYR  = If you do not have a valid VASP license, you may not use, copy or di
   VRHFIN =Ag : s1 d10                                                          
   LEXCH  = PE                                                                  
   EATOM  =  1037.2675 eV,   76.2370 Ry                                         
                                                                                
   TITEL  = PAW_PBE Ag 02Apr2005                                                
   LULTRA =        F    use ultrasoft PP ?                                      
   IUNSCR =        1    unscreen: 0-lin 1-nonlin 2-no                           
   RPACOR =    2.000    partial core radius                                     
   POMASS =  107.868; ZVAL   =   11.000    mass and valenz                      
   RCORE  =    2.500    outmost cutoff radius                                   
   RWIGS  =    2.840; RWIGS  =    1.503    wigner-seitz radius (au A)           
   ENMAX  =  249.844; ENMIN  =  187.383 eV                                      
   ICORE  =        3    local potential                                         
   LCOR   =        T    correct aug charges                                     
   LPAW   =        T    paw PP                                                  
   EAUG   =  412.496                                                            
   DEXC   =    0.000                                                            
   RMAX   =    2.560    core radius for proj-oper                               
   RAUG   =    1.300    factor for augmentation sphere                          
   RDEP   =    2.576    radius for radial grids                                 
   RDEPT  =    2.072    core radius for aug-charge                              
                                                                                
   Atomic configuration                                                         
   12 entries                                                                   
     n  l   j            E        occ.                                          
     1  0  0.50    -25324.9161   2.0000                                         
     2  0  0.50     -3728.5341   2.0000                                         
     2  1  1.50     -3344.0404   6.0000                                         
     3  0  0.50      -683.5581   2.0000                                         
     3  1  1.50      -557.3225   6.0000                                         
     3  2  2.50      -358.3853  10.0000                                         
     4  0  0.50       -95.0341   2.0000                                         
     4  1  1.50       -58.5511   6.0000                                         
     4  2  2.50        -7.4440  10.0000                                         
     5  0  0.50        -4.4045   1.0000                                         
     5  1  0.50        -1.3606   0.0000                                         
     4  3  2.50        -1.3606   0.0000                                         
   Description                                                                  
     l       E           TYP  RCUT    TYP  RCUT                                 
     2     -7.4439781     23  2.400                                             
     2     -8.8045607     23  2.400                                             
     0     -4.4044681     23  2.400                                             
     0      1.9520038     23  2.400                                             
     1     -1.3605826     23  2.500                                             
     1     27.2116520     23  2.500                                             
     3     -4.0817478     23  2.400                                             
  local pseudopotential read in
  partial core-charges read in
  partial kinetic energy density read in
  atomic valenz-charges read in
  non local Contribution for L=           2  read in
    real space projection operators read in
  non local Contribution for L=           2  read in
    real space projection operators read in
  non local Contribution for L=           0  read in
    real space projection operators read in
  non local Contribution for L=           0  read in
    real space projection operators read in
  non local Contribution for L=           1  read in
    real space projection operators read in
  non local Contribution for L=           1  read in
    real space projection operators read in
    PAW grid and wavefunctions read in
 
   number of l-projection  operators is LMAX  =           6
   number of lm-projection operators is LMMAX =          18
 
 POTCAR:    PAW_PBE Sb 06Sep2000                  
   SHA256 =  8a1325a3afd8ca988779475cff04188eb880a428d1acb53275fe456fa3b784fc Sb
   COPYR  = (c) Copyright 06Sep2000 Georg Kresse                                
   COPYR  = This file is part of the software VASP. Any use, copying, and all ot
   COPYR  = If you do not have a valid VASP license, you may not use, copy or di
   VRHFIN =Sb: s2p3                                                             
   LEXCH  = PE                                                                  
   EATOM  =   149.9515 eV,   11.0211 Ry                                         
                                                                                
   TITEL  = PAW_PBE Sb 06Sep2000                                                
   LULTRA =        F    use ultrasoft PP ?                                      
   IUNSCR =        1    unscreen: 0-lin 1-nonlin 2-no                           
   RPACOR =    2.200    partial core radius                                     
   POMASS =  121.750; ZVAL   =    5.000    mass and valenz                      
   RCORE  =    2.300    outmost cutoff radius                                   
   RWIGS  =    2.980; RWIGS  =    1.577    wigner-seitz radius (au A)           
   ENMAX  =  172.069; ENMIN  =  129.052 eV                                      
   ICORE  =        3    local potential                                         
   LCOR   =        T    correct aug charges                                     
   LPAW   =        T    paw PP                                                  
   EAUG   =  380.513                                                            
   DEXC   =    0.000                                                            
   RMAX   =    2.346    core radius for proj-oper                               
   RAUG   =    1.300    factor for augmentation sphere                          
   RDEP   =    2.360    radius for radial grids                                 
   RDEPT  =    2.192    core radius for aug-charge                              
                                                                                
   Atomic configuration                                                         
   13 entries                                                                   
     n  l   j            E        occ.                                          
     1  0  0.50    -30298.2797   2.0000                                         
     2  0  0.50     -4610.2252   2.0000                                         
     2  1  1.50     -4138.3407   6.0000                                         
     3  0  0.50      -903.8815   2.0000                                         
     3  1  1.50      -750.1337   6.0000                                         
     3  2  2.50      -515.7092  10.0000                                         
     4  0  0.50      -148.8034   2.0000                                         
     4  1  1.50      -101.7581   6.0000                                         
     4  2  2.50       -33.5048  10.0000                                         
     5  0  0.50       -12.8298   2.0000                                         
     5  1  0.50        -4.8276   3.0000                                         
     5  2  1.50        -4.0817   0.0000                                         
     4  3  2.50        -4.0817   0.0000                                         
   Description                                                                  
     l       E           TYP  RCUT    TYP  RCUT                                 
     0    -12.8297861     23  2.300                                             
     0     13.6058260     23  2.300                                             
     1     -4.8275512     23  2.300                                             
     1     -0.7245443     23  2.300                                             
     2     -4.0817478     23  2.300                                             
     3     -1.3605826     23  2.300                                             
  local pseudopotential read in
  partial core-charges read in
  partial kinetic energy density read in
  atomic valenz-charges read in
  non local Contribution for L=           0  read in
    real space projection operators read in
  non local Contribution for L=           0  read in
    real space projection operators read in
  non local Contribution for L=           1  read in
    real space projection operators read in
  non local Contribution for L=           1  read in
    real space projection operators read in
  non local Contribution for L=           2  read in
    real space projection operators read in
    PAW grid and wavefunctions read in
 
   number of l-projection  operators is LMAX  =           5
   number of lm-projection operators is LMMAX =          13
 
 POTCAR:    PAW_PBE S 06Sep2000                   
   SHA256 =  0fc7481fb0695f01bdc6462160264c5c84044ae9ec85a907d398b887a2bc3132 S/
   COPYR  = (c) Copyright 06Sep2000 Georg Kresse                                
   COPYR  = This file is part of the software VASP. Any use, copying, and all ot
   COPYR  = If you do not have a valid VASP license, you may not use, copy or di
   VRHFIN =S : s2p4                                                             
   LEXCH  = PE                                                                  
   EATOM  =   276.8230 eV,   20.3459 Ry                                         
                                                                                
   TITEL  = PAW_PBE S 06Sep2000                                                 
   LULTRA =        F    use ultrasoft PP ?                                      
   IUNSCR =        1    unscreen: 0-lin 1-nonlin 2-no                           
   RPACOR =    1.500    partial core radius                                     
   POMASS =   32.066; ZVAL   =    6.000    mass and valenz                      
   RCORE  =    1.900    outmost cutoff radius                                   
   RWIGS  =    2.200; RWIGS  =    1.164    wigner-seitz radius (au A)           
   ENMAX  =  258.689; ENMIN  =  194.016 eV                                      
   ICORE  =        2    local potential                                         
   LCOR   =        T    correct aug charges                                     
   LPAW   =        T    paw PP                                                  
   EAUG   =  335.092                                                            
   DEXC   =    0.000                                                            
   RMAX   =    1.942    core radius for proj-oper                               
   RAUG   =    1.300    factor for augmentation sphere                          
   RDEP   =    1.954    radius for radial grids                                 
   RDEPT  =    1.744    core radius for aug-charge                              
                                                                                
   Atomic configuration                                                         
    6 entries                                                                   
     n  l   j            E        occ.                                          
     1  0  0.50     -2405.8406   2.0000                                         
     2  0  0.50      -211.7007   2.0000                                         
     2  1  1.50      -156.4958   6.0000                                         
     3  0  0.50       -17.2562   2.0000                                         
     3  1  0.50        -7.0085   4.0000                                         
     3  2  1.50        -6.8029   0.0000                                         
   Description                                                                  
     l       E           TYP  RCUT    TYP  RCUT                                 
     0    -17.2561641     23  1.900                                             
     0    -15.8743224     23  1.900                                             
     1     -7.0085400     23  1.900                                             
     1     -2.7779785     23  1.900                                             
     2     -6.8029130     23  1.900                                             
  local pseudopotential read in
  partial core-charges read in
  partial kinetic energy density read in
  atomic valenz-charges read in
  non local Contribution for L=           0  read in
    real space projection operators read in
  non local Contribution for L=           0  read in
    real space projection operators read in
  non local Contribution for L=           1  read in
    real space projection operators read in
  non local Contribution for L=           1  read in
    real space projection operators read in
    PAW grid and wavefunctions read in
 
   number of l-projection  operators is LMAX  =           4
   number of lm-projection operators is LMMAX =           8
 
  PAW_PBE Ag 02Apr2005                  :
 energy of atom  1       EATOM=-1037.2675
 kinetic energy error for atom=    0.0052 (will be added to EATOM!!)
  PAW_PBE Sb 06Sep2000                  :
 energy of atom  2       EATOM= -149.9515
 kinetic energy error for atom=    0.0005 (will be added to EATOM!!)
  PAW_PBE S 06Sep2000                   :
 energy of atom  3       EATOM= -276.8230
 kinetic energy error for atom=    0.0020 (will be added to EATOM!!)
 
 
 POSCAR: Ag6 Sb2 S6                              
  positions in direct lattice
  No initial velocities read in
 exchange correlation table for  LEXCH =        8
   RHO(1)=    0.500       N(1)  =     2000
   RHO(2)=  100.500       N(2)  =     4000
 


--------------------------------------------------------------------------------------------------------


 ion  position               nearest neighbor table
   1  0.414  0.740  0.952-   9 2.43  10 2.44  11 2.79   5 3.40   2 3.40   7 3.46   4 3.53   4 3.53

   2  0.952  0.414  0.740-  13 2.43   9 2.44  14 2.79   1 3.40   5 3.40   7 3.46   3 3.53   3 3.53

   3  0.914  0.452  0.240-  12 2.43  11 2.44  10 2.79   4 3.40   6 3.40   8 3.46   2 3.53   2 3.53

   4  0.452  0.240  0.914-  14 2.43  12 2.44  13 2.79   3 3.40   6 3.40   8 3.46   1 3.53   1 3.53

   5  0.740  0.952  0.414-  10 2.43  13 2.44  12 2.79   1 3.40   2 3.40   7 3.46   6 3.53   6 3.53

   6  0.240  0.914  0.452-  11 2.43  14 2.44   9 2.79   4 3.40   3 3.40   8 3.46   5 3.53   5 3.53

   7  0.506  0.506  0.506-  11 2.48  12 2.48  14 2.48   2 3.46   1 3.46   5 3.46
   8  0.006  0.006  0.006-  13 2.48   9 2.48  10 2.48   6 3.46   3 3.46   4 3.46
   9  0.098  0.765  0.751-   1 2.43   2 2.44   8 2.48   6 2.79
  10  0.765  0.751  0.098-   5 2.43   1 2.44   8 2.48   3 2.79
  11  0.265  0.598  0.251-   6 2.43   3 2.44   7 2.48   1 2.79
  12  0.598  0.251  0.265-   3 2.43   4 2.44   7 2.48   5 2.79
  13  0.751  0.098  0.765-   2 2.43   5 2.44   8 2.48   4 2.79
  14  0.251  0.265  0.598-   4 2.43   6 2.44   7 2.48   2 2.79
 
  LATTYP: Found a trigonal (rhomboedric) cell.
 ALAT       =     7.0064291566
 COS(alpha) =    -0.2039707475
  
  Lattice vectors:
  
 A1 = (   6.8273743200,   0.1832872900,  -1.5631403500)
 A2 = (  -1.9997877500,   6.5305046400,  -1.5631403100)
 A3 = (   0.1317924100,   0.1832872600,   7.0027910500)


Analysis of symmetry for initial positions (statically):
=====================================================================
 Subroutine PRICEL returns:
 Original cell was already a primitive cell.
 

 Routine SETGRP: Setting up the symmetry group for a 
 trigonal (rhombohedral) supercell.


 Subroutine GETGRP returns: Found  6 space group operations
 (whereof  3 operations were pure point group operations)
 out of a pool of 12 trial point group operations.


The static configuration has the point symmetry C_3 .
 The point group associated with its full space group is C_3v.


Analysis of symmetry for dynamics (positions and initial velocities):
=====================================================================
 Subroutine PRICEL returns:
 Original cell was already a primitive cell.
 

 Routine SETGRP: Setting up the symmetry group for a 
 trigonal (rhombohedral) supercell.


 Subroutine GETGRP returns: Found  6 space group operations
 (whereof  3 operations were pure point group operations)
 out of a pool of 12 trial point group operations.


The dynamic configuration has the point symmetry C_3 .
 The point group associated with its full space group is C_3v.


 Subroutine INISYM returns: Found  6 space group operations
 (whereof  3 operations are pure point group operations),
 and found     1 'primitive' translations

 
 
 KPOINTS: Automatic mesh                          

Automatic generation of k-mesh.
Space group operators:
 irot       det(A)        alpha          n_x          n_y          n_z        tau_x        tau_y        tau_z
    1     1.000000     0.000000     1.000000     0.000000     0.000000     0.000000     0.000000     0.000000
    2     1.000000   120.000000    -0.531114    -0.738628    -0.415147     0.000000     0.000000     0.000000
    3     1.000000   120.000000     0.531114     0.738628     0.415147     0.000000     0.000000     0.000000
    4    -1.000000   180.000000    -0.196057     0.583799    -0.787871     0.500000     0.500000     0.500000
    5    -1.000000   180.000000     0.811898    -0.583799     0.000000     0.500000     0.500000     0.500000
    6    -1.000000   180.000000    -0.615841     0.000000     0.787870     0.500000     0.500000     0.500000
 
 Subroutine IBZKPT returns following result:
 ===========================================
 
 Found    344 irreducible k-points:
 
 Following reciprocal coordinates:
            Coordinates               Weight
  0.000000  0.000000  0.000000      1.000000
  0.066667  0.000000  0.000000      6.000000
  0.133333  0.000000  0.000000      6.000000
  0.200000 -0.000000  0.000000      6.000000
  0.266667 -0.000000  0.000000      6.000000
  0.333333 -0.000000  0.000000      6.000000
  0.400000 -0.000000  0.000000      6.000000
  0.466667 -0.000000  0.000000      6.000000
  0.066667  0.066667  0.000000      6.000000
  0.133333  0.066667 -0.000000     12.000000
  0.200000  0.066667 -0.000000     12.000000
  0.266667  0.066667  0.000000     12.000000
  0.333333  0.066667  0.000000     12.000000
  0.400000  0.066667  0.000000     12.000000
  0.466667  0.066667  0.000000     12.000000
 -0.466667  0.066667 -0.000000     12.000000
 -0.400000  0.066667 -0.000000     12.000000
 -0.333333  0.066667 -0.000000     12.000000
 -0.266667  0.066667 -0.000000     12.000000
 -0.200000  0.066667 -0.000000     12.000000
 -0.133333  0.066667  0.000000     12.000000
 -0.066667  0.066667 -0.000000      6.000000
  0.133333  0.133333  0.000000      6.000000
  0.200000  0.133333  0.000000     12.000000
  0.266667  0.133333  0.000000     12.000000
  0.333333  0.133333  0.000000     12.000000
  0.400000  0.133333  0.000000     12.000000
  0.466667  0.133333  0.000000     12.000000
 -0.466667  0.133333 -0.000000     12.000000
 -0.400000  0.133333 -0.000000     12.000000
 -0.333333  0.133333 -0.000000     12.000000
 -0.266667  0.133333 -0.000000     12.000000
 -0.200000  0.133333 -0.000000     12.000000
 -0.133333  0.133333 -0.000000      6.000000
  0.200000  0.200000  0.000000      6.000000
  0.266667  0.200000  0.000000     12.000000
  0.333333  0.200000  0.000000     12.000000
  0.400000  0.200000  0.000000     12.000000
  0.466667  0.200000  0.000000     12.000000
 -0.466667  0.200000 -0.000000     12.000000
 -0.400000  0.200000 -0.000000     12.000000
 -0.333333  0.200000  0.000000     12.000000
 -0.266667  0.200000 -0.000000     12.000000
 -0.200000  0.200000  0.000000      6.000000
  0.266667  0.266667 -0.000000      6.000000
  0.333333  0.266667  0.000000     12.000000
  0.400000  0.266667  0.000000     12.000000
  0.466667  0.266667  0.000000     12.000000
 -0.466667  0.266667 -0.000000     12.000000
 -0.400000  0.266667 -0.000000     12.000000
 -0.333333  0.266667 -0.000000     12.000000
 -0.266667  0.266667 -0.000000      6.000000
  0.333333  0.333333  0.000000      6.000000
  0.400000  0.333333  0.000000     12.000000
  0.466667  0.333333  0.000000     12.000000
 -0.466667  0.333333 -0.000000     12.000000
 -0.400000  0.333333  0.000000     12.000000
 -0.333333  0.333333  0.000000      6.000000
  0.400000  0.400000  0.000000      6.000000
  0.466667  0.400000  0.000000     12.000000
 -0.466667  0.400000 -0.000000     12.000000
 -0.400000  0.400000  0.000000      6.000000
  0.466667  0.466667  0.000000      6.000000
 -0.466667  0.466667 -0.000000      6.000000
  0.066667  0.066667  0.066667      2.000000
  0.133333  0.066667  0.066667      6.000000
  0.200000  0.066667  0.066667      6.000000
  0.266667  0.066667  0.066667      6.000000
  0.333333  0.066667  0.066667      6.000000
  0.400000  0.066667  0.066667      6.000000
  0.466667  0.066667  0.066667      6.000000
 -0.466667  0.066667  0.066667      6.000000
 -0.400000  0.066667  0.066667      6.000000
 -0.333333  0.066667  0.066667      6.000000
 -0.266667  0.066667  0.066667      6.000000
 -0.200000  0.066667  0.066667      6.000000
 -0.133333  0.066667  0.066667      6.000000
 -0.066667  0.066667  0.066667      6.000000
  0.133333  0.133333  0.066667      6.000000
  0.200000  0.133333  0.066667     12.000000
  0.266667  0.133333  0.066667     12.000000
  0.333333  0.133333  0.066667     12.000000
  0.400000  0.133333  0.066667     12.000000
  0.466667  0.133333  0.066667     12.000000
 -0.466667  0.133333  0.066667     12.000000
 -0.400000  0.133333  0.066667     12.000000
 -0.333333  0.133333  0.066667     12.000000
 -0.266667  0.133333  0.066667     12.000000
 -0.200000  0.133333  0.066667     12.000000
 -0.133333  0.133333  0.066667     12.000000
 -0.066667  0.133333  0.066667     12.000000
  0.200000  0.200000  0.066667      6.000000
  0.266667  0.200000  0.066667     12.000000
  0.333333  0.200000  0.066667     12.000000
  0.400000  0.200000  0.066667     12.000000
  0.466667  0.200000  0.066667     12.000000
 -0.466667  0.200000  0.066667     12.000000
 -0.400000  0.200000  0.066667     12.000000
 -0.333333  0.200000  0.066667     12.000000
 -0.266667  0.200000  0.066667     12.000000
 -0.200000  0.200000  0.066667     12.000000
 -0.133333  0.200000  0.066667     12.000000
 -0.066667  0.200000  0.066667     12.000000
  0.266667  0.266667  0.066667      6.000000
  0.333333  0.266667  0.066667     12.000000
  0.400000  0.266667  0.066667     12.000000
  0.466667  0.266667  0.066667     12.000000
 -0.466667  0.266667  0.066667     12.000000
 -0.400000  0.266667  0.066667     12.000000
 -0.333333  0.266667  0.066667     12.000000
 -0.266667  0.266667  0.066667     12.000000
 -0.200000  0.266667  0.066667     12.000000
 -0.133333  0.266667  0.066667     12.000000
 -0.066667  0.266667  0.066667     12.000000
  0.333333  0.333333  0.066667      6.000000
  0.400000  0.333333  0.066667     12.000000
  0.466667  0.333333  0.066667     12.000000
 -0.466667  0.333333  0.066667     12.000000
 -0.400000  0.333333  0.066667     12.000000
 -0.333333  0.333333  0.066667     12.000000
 -0.266667  0.333333  0.066667     12.000000
 -0.200000  0.333333  0.066667     12.000000
 -0.133333  0.333333  0.066667     12.000000
 -0.066667  0.333333  0.066667     12.000000
  0.400000  0.400000  0.066667      6.000000
  0.466667  0.400000  0.066667     12.000000
 -0.466667  0.400000  0.066667     12.000000
 -0.400000  0.400000  0.066667     12.000000
 -0.333333  0.400000  0.066667     12.000000
 -0.266667  0.400000  0.066667     12.000000
 -0.200000  0.400000  0.066667     12.000000
 -0.133333  0.400000  0.066667     12.000000
 -0.066667  0.400000  0.066667     12.000000
  0.466667  0.466667  0.066667      6.000000
 -0.466667  0.466667  0.066667     12.000000
 -0.400000  0.466667  0.066667     12.000000
 -0.333333  0.466667  0.066667     12.000000
 -0.266667  0.466667  0.066667     12.000000
 -0.200000  0.466667  0.066667     12.000000
 -0.133333  0.466667  0.066667     12.000000
 -0.066667  0.466667  0.066667     12.000000
 -0.466667 -0.466667  0.066667      6.000000
 -0.400000 -0.466667  0.066667     12.000000
 -0.333333 -0.466667  0.066667     12.000000
 -0.266667 -0.466667  0.066667     12.000000
 -0.200000 -0.466667  0.066667     12.000000
 -0.133333 -0.466667  0.066667     12.000000
 -0.400000 -0.400000  0.066667      6.000000
 -0.333333 -0.400000  0.066667     12.000000
 -0.266667 -0.400000  0.066667     12.000000
 -0.200000 -0.400000  0.066667     12.000000
 -0.133333 -0.400000  0.066667     12.000000
 -0.333333 -0.333333  0.066667      6.000000
 -0.266667 -0.333333  0.066667     12.000000
 -0.200000 -0.333333  0.066667     12.000000
 -0.133333 -0.333333  0.066667     12.000000
 -0.266667 -0.266667  0.066667      6.000000
 -0.200000 -0.266667  0.066667     12.000000
 -0.133333 -0.266667  0.066667     12.000000
 -0.200000 -0.200000  0.066667      6.000000
 -0.133333 -0.200000  0.066667     12.000000
 -0.133333 -0.133333  0.066667      6.000000
  0.133333  0.133333  0.133333      2.000000
  0.200000  0.133333  0.133333      6.000000
  0.266667  0.133333  0.133333      6.000000
  0.333333  0.133333  0.133333      6.000000
  0.400000  0.133333  0.133333      6.000000
  0.466667  0.133333  0.133333      6.000000
 -0.466667  0.133333  0.133333      6.000000
 -0.400000  0.133333  0.133333      6.000000
 -0.333333  0.133333  0.133333      6.000000
 -0.266667  0.133333  0.133333      6.000000
 -0.200000  0.133333  0.133333      6.000000
 -0.133333  0.133333  0.133333      6.000000
  0.200000  0.200000  0.133333      6.000000
  0.266667  0.200000  0.133333     12.000000
  0.333333  0.200000  0.133333     12.000000
  0.400000  0.200000  0.133333     12.000000
  0.466667  0.200000  0.133333     12.000000
 -0.466667  0.200000  0.133333     12.000000
 -0.400000  0.200000  0.133333     12.000000
 -0.333333  0.200000  0.133333     12.000000
 -0.266667  0.200000  0.133333     12.000000
 -0.200000  0.200000  0.133333     12.000000
 -0.133333  0.200000  0.133333     12.000000
  0.266667  0.266667  0.133333      6.000000
  0.333333  0.266667  0.133333     12.000000
  0.400000  0.266667  0.133333     12.000000
  0.466667  0.266667  0.133333     12.000000
 -0.466667  0.266667  0.133333     12.000000
 -0.400000  0.266667  0.133333     12.000000
 -0.333333  0.266667  0.133333     12.000000
 -0.266667  0.266667  0.133333     12.000000
 -0.200000  0.266667  0.133333     12.000000
 -0.133333  0.266667  0.133333     12.000000
  0.333333  0.333333  0.133333      6.000000
  0.400000  0.333333  0.133333     12.000000
  0.466667  0.333333  0.133333     12.000000
 -0.466667  0.333333  0.133333     12.000000
 -0.400000  0.333333  0.133333     12.000000
 -0.333333  0.333333  0.133333     12.000000
 -0.266667  0.333333  0.133333     12.000000
 -0.200000  0.333333  0.133333     12.000000
 -0.133333  0.333333  0.133333     12.000000
  0.400000  0.400000  0.133333      6.000000
  0.466667  0.400000  0.133333     12.000000
 -0.466667  0.400000  0.133333     12.000000
 -0.400000  0.400000  0.133333     12.000000
 -0.333333  0.400000  0.133333     12.000000
 -0.266667  0.400000  0.133333     12.000000
 -0.200000  0.400000  0.133333     12.000000
 -0.133333  0.400000  0.133333     12.000000
  0.466667  0.466667  0.133333      6.000000
 -0.466667  0.466667  0.133333     12.000000
 -0.400000  0.466667  0.133333     12.000000
 -0.333333  0.466667  0.133333     12.000000
 -0.266667  0.466667  0.133333     12.000000
 -0.200000  0.466667  0.133333     12.000000
 -0.133333  0.466667  0.133333     12.000000
 -0.466667 -0.466667  0.133333      6.000000
 -0.400000 -0.466667  0.133333     12.000000
 -0.333333 -0.466667  0.133333     12.000000
 -0.266667 -0.466667  0.133333     12.000000
 -0.200000 -0.466667  0.133333     12.000000
 -0.400000 -0.400000  0.133333      6.000000
 -0.333333 -0.400000  0.133333     12.000000
 -0.266667 -0.400000  0.133333     12.000000
 -0.200000 -0.400000  0.133333     12.000000
 -0.333333 -0.333333  0.133333      6.000000
 -0.266667 -0.333333  0.133333     12.000000
 -0.200000 -0.333333  0.133333     12.000000
 -0.266667 -0.266667  0.133333      6.000000
 -0.200000 -0.266667  0.133333     12.000000
 -0.200000 -0.200000  0.133333      6.000000
  0.200000  0.200000  0.200000      2.000000
  0.266667  0.200000  0.200000      6.000000
  0.333333  0.200000  0.200000      6.000000
  0.400000  0.200000  0.200000      6.000000
  0.466667  0.200000  0.200000      6.000000
 -0.466667  0.200000  0.200000      6.000000
 -0.400000  0.200000  0.200000      6.000000
 -0.333333  0.200000  0.200000      6.000000
 -0.266667  0.200000  0.200000      6.000000
 -0.200000  0.200000  0.200000      6.000000
  0.266667  0.266667  0.200000      6.000000
  0.333333  0.266667  0.200000     12.000000
  0.400000  0.266667  0.200000     12.000000
  0.466667  0.266667  0.200000     12.000000
 -0.466667  0.266667  0.200000     12.000000
 -0.400000  0.266667  0.200000     12.000000
 -0.333333  0.266667  0.200000     12.000000
 -0.266667  0.266667  0.200000     12.000000
 -0.200000  0.266667  0.200000     12.000000
  0.333333  0.333333  0.200000      6.000000
  0.400000  0.333333  0.200000     12.000000
  0.466667  0.333333  0.200000     12.000000
 -0.466667  0.333333  0.200000     12.000000
 -0.400000  0.333333  0.200000     12.000000
 -0.333333  0.333333  0.200000     12.000000
 -0.266667  0.333333  0.200000     12.000000
 -0.200000  0.333333  0.200000     12.000000
  0.400000  0.400000  0.200000      6.000000
  0.466667  0.400000  0.200000     12.000000
 -0.466667  0.400000  0.200000     12.000000
 -0.400000  0.400000  0.200000     12.000000
 -0.333333  0.400000  0.200000     12.000000
 -0.266667  0.400000  0.200000     12.000000
 -0.200000  0.400000  0.200000     12.000000
  0.466667  0.466667  0.200000      6.000000
 -0.466667  0.466667  0.200000     12.000000
 -0.400000  0.466667  0.200000     12.000000
 -0.333333  0.466667  0.200000     12.000000
 -0.266667  0.466667  0.200000     12.000000
 -0.200000  0.466667  0.200000     12.000000
 -0.466667 -0.466667  0.200000      6.000000
 -0.400000 -0.466667  0.200000     12.000000
 -0.333333 -0.466667  0.200000     12.000000
 -0.266667 -0.466667  0.200000     12.000000
 -0.400000 -0.400000  0.200000      6.000000
 -0.333333 -0.400000  0.200000     12.000000
 -0.266667 -0.400000  0.200000     12.000000
 -0.333333 -0.333333  0.200000      6.000000
 -0.266667 -0.333333  0.200000     12.000000
 -0.266667 -0.266667  0.200000      6.000000
  0.266667  0.266667  0.266667      2.000000
  0.333333  0.266667  0.266667      6.000000
  0.400000  0.266667  0.266667      6.000000
  0.466667  0.266667  0.266667      6.000000
 -0.466667  0.266667  0.266667      6.000000
 -0.400000  0.266667  0.266667      6.000000
 -0.333333  0.266667  0.266667      6.000000
 -0.266667  0.266667  0.266667      6.000000
  0.333333  0.333333  0.266667      6.000000
  0.400000  0.333333  0.266667     12.000000
  0.466667  0.333333  0.266667     12.000000
 -0.466667  0.333333  0.266667     12.000000
 -0.400000  0.333333  0.266667     12.000000
 -0.333333  0.333333  0.266667     12.000000
 -0.266667  0.333333  0.266667     12.000000
  0.400000  0.400000  0.266667      6.000000
  0.466667  0.400000  0.266667     12.000000
 -0.466667  0.400000  0.266667     12.000000
 -0.400000  0.400000  0.266667     12.000000
 -0.333333  0.400000  0.266667     12.000000
 -0.266667  0.400000  0.266667     12.000000
  0.466667  0.466667  0.266667      6.000000
 -0.466667  0.466667  0.266667     12.000000
 -0.400000  0.466667  0.266667     12.000000
 -0.333333  0.466667  0.266667     12.000000
 -0.266667  0.466667  0.266667     12.000000
 -0.466667 -0.466667  0.266667      6.000000
 -0.400000 -0.466667  0.266667     12.000000
 -0.333333 -0.466667  0.266667     12.000000
 -0.400000 -0.400000  0.266667      6.000000
 -0.333333 -0.400000  0.266667     12.000000
 -0.333333 -0.333333  0.266667      6.000000
  0.333333  0.333333  0.333333      2.000000
  0.400000  0.333333  0.333333      6.000000
  0.466667  0.333333  0.333333      6.000000
 -0.466667  0.333333  0.333333      6.000000
 -0.400000  0.333333  0.333333      6.000000
 -0.333333  0.333333  0.333333      6.000000
  0.400000  0.400000  0.333333      6.000000
  0.466667  0.400000  0.333333     12.000000
 -0.466667  0.400000  0.333333     12.000000
 -0.400000  0.400000  0.333333     12.000000
 -0.333333  0.400000  0.333333     12.000000
  0.466667  0.466667  0.333333      6.000000
 -0.466667  0.466667  0.333333     12.000000
 -0.400000  0.466667  0.333333     12.000000
 -0.333333  0.466667  0.333333     12.000000
 -0.466667 -0.466667  0.333333      6.000000
 -0.400000 -0.466667  0.333333     12.000000
 -0.400000 -0.400000  0.333333      6.000000
  0.400000  0.400000  0.400000      2.000000
  0.466667  0.400000  0.400000      6.000000
 -0.466667  0.400000  0.400000      6.000000
 -0.400000  0.400000  0.400000      6.000000
  0.466667  0.466667  0.400000      6.000000
 -0.466667  0.466667  0.400000     12.000000
 -0.400000  0.466667  0.400000     12.000000
 -0.466667 -0.466667  0.400000      6.000000
  0.466667  0.466667  0.466667      2.000000
 -0.466667  0.466667  0.466667      6.000000
 
 Following cartesian coordinates:
            Coordinates               Weight
  0.000000  0.000000  0.000000      1.000000
  0.009628  0.002887 -0.000257      6.000000
  0.019257  0.005774 -0.000514      6.000000
  0.028885  0.008661 -0.000770      6.000000
  0.038513  0.011548 -0.001027      6.000000
  0.048142  0.014435 -0.001284      6.000000
  0.057770  0.017322 -0.001541      6.000000
  0.067398  0.020209 -0.001797      6.000000
  0.009300  0.012933 -0.000514      6.000000
  0.018928  0.015820 -0.000770     12.000000
  0.028556  0.018707 -0.001027     12.000000
  0.038185  0.021594 -0.001284     12.000000
  0.047813  0.024481 -0.001541     12.000000
  0.057441  0.027368 -0.001797     12.000000
  0.067070  0.030255 -0.002054     12.000000
 -0.067727 -0.010162  0.001541     12.000000
 -0.058098 -0.007275  0.001284     12.000000
 -0.048470 -0.004388  0.001027     12.000000
 -0.038842 -0.001501  0.000770     12.000000
 -0.029213  0.001386  0.000514     12.000000
 -0.019585  0.004273  0.000257     12.000000
 -0.009957  0.007159 -0.000000      6.000000
  0.018600  0.025867 -0.001027      6.000000
  0.028228  0.028754 -0.001284     12.000000
  0.037856  0.031641 -0.001541     12.000000
  0.047485  0.034528 -0.001797     12.000000
  0.057113  0.037415 -0.002054     12.000000
  0.066741  0.040302 -0.002311     12.000000
 -0.068055 -0.000116  0.001284     12.000000
 -0.058427  0.002771  0.001027     12.000000
 -0.048799  0.005658  0.000770     12.000000
 -0.039170  0.008545  0.000514     12.000000
 -0.029542  0.011432  0.000257     12.000000
 -0.019914  0.014319 -0.000000      6.000000
  0.027899  0.038800 -0.001541      6.000000
  0.037528  0.041687 -0.001797     12.000000
  0.047156  0.044574 -0.002054     12.000000
  0.056784  0.047461 -0.002311     12.000000
  0.066413  0.050348 -0.002568     12.000000
 -0.068384  0.009931  0.001027     12.000000
 -0.058755  0.012818  0.000770     12.000000
 -0.049127  0.015705  0.000514     12.000000
 -0.039499  0.018592  0.000257     12.000000
 -0.029870  0.021478 -0.000000      6.000000
  0.037199  0.051734 -0.002054      6.000000
  0.046828  0.054621 -0.002311     12.000000
  0.056456  0.057507 -0.002568     12.000000
  0.066084  0.060394 -0.002824     12.000000
 -0.068712  0.019977  0.000770     12.000000
 -0.059084  0.022864  0.000514     12.000000
 -0.049456  0.025751  0.000257     12.000000
 -0.039827  0.028638 -0.000000      6.000000
  0.046499  0.064667 -0.002568      6.000000
  0.056127  0.067554 -0.002824     12.000000
  0.065756  0.070441 -0.003081     12.000000
 -0.069041  0.030024  0.000514     12.000000
 -0.059412  0.032911  0.000257     12.000000
 -0.049784  0.035797 -0.000000      6.000000
  0.055799  0.077600 -0.003081      6.000000
  0.065427  0.080487 -0.003338     12.000000
 -0.069369  0.040070  0.000257     12.000000
 -0.059741  0.042957 -0.000000      6.000000
  0.065099  0.090534 -0.003595      6.000000
 -0.069698  0.050116 -0.000000      6.000000
  0.011376  0.015820  0.008892      2.000000
  0.021004  0.018707  0.008635      6.000000
  0.030632  0.021594  0.008378      6.000000
  0.040261  0.024481  0.008122      6.000000
  0.049889  0.027368  0.007865      6.000000
  0.059517  0.030255  0.007608      6.000000
  0.069146  0.033142  0.007351      6.000000
 -0.065651 -0.007275  0.010946      6.000000
 -0.056023 -0.004388  0.010689      6.000000
 -0.046394 -0.001501  0.010432      6.000000
 -0.036766  0.001386  0.010176      6.000000
 -0.027138  0.004273  0.009919      6.000000
 -0.017509  0.007160  0.009662      6.000000
 -0.007881  0.010046  0.009405      6.000000
  0.020676  0.028754  0.008378      6.000000
  0.030304  0.031641  0.008122     12.000000
  0.039932  0.034528  0.007865     12.000000
  0.049561  0.037415  0.007608     12.000000
  0.059189  0.040302  0.007351     12.000000
  0.068817  0.043188  0.007094     12.000000
 -0.065979  0.002771  0.010689     12.000000
 -0.056351  0.005658  0.010432     12.000000
 -0.046723  0.008545  0.010176     12.000000
 -0.037094  0.011432  0.009919     12.000000
 -0.027466  0.014319  0.009662     12.000000
 -0.017838  0.017206  0.009405     12.000000
 -0.008209  0.020093  0.009149     12.000000
  0.029975  0.041687  0.007865      6.000000
  0.039604  0.044574  0.007608     12.000000
  0.049232  0.047461  0.007351     12.000000
  0.058860  0.050348  0.007094     12.000000
  0.068489  0.053235  0.006838     12.000000
 -0.066308  0.012818  0.010432     12.000000
 -0.056680  0.015705  0.010176     12.000000
 -0.047051  0.018592  0.009919     12.000000
 -0.037423  0.021478  0.009662     12.000000
 -0.027795  0.024365  0.009405     12.000000
 -0.018166  0.027252  0.009149     12.000000
 -0.008538  0.030139  0.008892     12.000000
  0.039275  0.054621  0.007351      6.000000
  0.048904  0.057507  0.007094     12.000000
  0.058532  0.060394  0.006838     12.000000
  0.068160  0.063281  0.006581     12.000000
 -0.066636  0.022864  0.010176     12.000000
 -0.057008  0.025751  0.009919     12.000000
 -0.047380  0.028638  0.009662     12.000000
 -0.037751  0.031525  0.009405     12.000000
 -0.028123  0.034412  0.009149     12.000000
 -0.018495  0.037299  0.008892     12.000000
 -0.008866  0.040186  0.008635     12.000000
  0.048575  0.067554  0.006838      6.000000
  0.058203  0.070441  0.006581     12.000000
  0.067832  0.073328  0.006324     12.000000
 -0.066965  0.032911  0.009919     12.000000
 -0.057337  0.035797  0.009662     12.000000
 -0.047708  0.038684  0.009405     12.000000
 -0.038080  0.041571  0.009149     12.000000
 -0.028452  0.044458  0.008892     12.000000
 -0.018823  0.047345  0.008635     12.000000
 -0.009195  0.050232  0.008378     12.000000
  0.057875  0.080487  0.006324      6.000000
  0.067503  0.083374  0.006067     12.000000
 -0.067293  0.042957  0.009662     12.000000
 -0.057665  0.045844  0.009405     12.000000
 -0.048037  0.048731  0.009149     12.000000
 -0.038408  0.051618  0.008892     12.000000
 -0.028780  0.054505  0.008635     12.000000
 -0.019152  0.057392  0.008378     12.000000
 -0.009523  0.060279  0.008122     12.000000
  0.067175  0.093421  0.005811      6.000000
 -0.067622  0.053003  0.009405     12.000000
 -0.057994  0.055890  0.009149     12.000000
 -0.048365  0.058777  0.008892     12.000000
 -0.038737  0.061664  0.008635     12.000000
 -0.029109  0.064551  0.008378     12.000000
 -0.019480  0.067438  0.008122     12.000000
 -0.009852  0.070325  0.007865     12.000000
 -0.063023 -0.087647  0.013000      6.000000
 -0.053395 -0.084760  0.012743     12.000000
 -0.043766 -0.081873  0.012487     12.000000
 -0.034138 -0.078986  0.012230     12.000000
 -0.024510 -0.076099  0.011973     12.000000
 -0.014881 -0.073212  0.011716     12.000000
 -0.053723 -0.074713  0.012487      6.000000
 -0.044095 -0.071826  0.012230     12.000000
 -0.034466 -0.068940  0.011973     12.000000
 -0.024838 -0.066053  0.011716     12.000000
 -0.015210 -0.063166  0.011460     12.000000
 -0.044423 -0.061780  0.011973      6.000000
 -0.034795 -0.058893  0.011716     12.000000
 -0.025167 -0.056006  0.011460     12.000000
 -0.015538 -0.053119  0.011203     12.000000
 -0.035123 -0.048847  0.011460      6.000000
 -0.025495 -0.045960  0.011203     12.000000
 -0.015867 -0.043073  0.010946     12.000000
 -0.025824 -0.035913  0.010946      6.000000
 -0.016195 -0.033026  0.010689     12.000000
 -0.016524 -0.022980  0.010432      6.000000
  0.022751  0.031641  0.017784      2.000000
  0.032380  0.034528  0.017527      6.000000
  0.042008  0.037415  0.017270      6.000000
  0.051636  0.040302  0.017013      6.000000
  0.061265  0.043189  0.016757      6.000000
  0.070893  0.046075  0.016500      6.000000
 -0.063903  0.005658  0.020095      6.000000
 -0.054275  0.008545  0.019838      6.000000
 -0.044647  0.011432  0.019581      6.000000
 -0.035019  0.014319  0.019324      6.000000
 -0.025390  0.017206  0.019068      6.000000
 -0.015762  0.020093  0.018811      6.000000
  0.032051  0.044574  0.017270      6.000000
  0.041680  0.047461  0.017013     12.000000
  0.051308  0.050348  0.016757     12.000000
  0.060936  0.053235  0.016500     12.000000
  0.070565  0.056122  0.016243     12.000000
 -0.064232  0.015705  0.019838     12.000000
 -0.054604  0.018592  0.019581     12.000000
 -0.044975  0.021479  0.019324     12.000000
 -0.035347  0.024365  0.019068     12.000000
 -0.025719  0.027252  0.018811     12.000000
 -0.016090  0.030139  0.018554     12.000000
  0.041351  0.057508  0.016757      6.000000
  0.050979  0.060394  0.016500     12.000000
  0.060608  0.063281  0.016243     12.000000
  0.070236  0.066168  0.015986     12.000000
 -0.064560  0.025751  0.019581     12.000000
 -0.054932  0.028638  0.019324     12.000000
 -0.045304  0.031525  0.019068     12.000000
 -0.035676  0.034412  0.018811     12.000000
 -0.026047  0.037299  0.018554     12.000000
 -0.016419  0.040186  0.018297     12.000000
  0.050651  0.070441  0.016243      6.000000
  0.060279  0.073328  0.015986     12.000000
  0.069908  0.076215  0.015730     12.000000
 -0.064889  0.035797  0.019324     12.000000
 -0.055261  0.038684  0.019068     12.000000
 -0.045632  0.041571  0.018811     12.000000
 -0.036004  0.044458  0.018554     12.000000
 -0.026376  0.047345  0.018297     12.000000
 -0.016747  0.050232  0.018040     12.000000
  0.059951  0.083374  0.015730      6.000000
  0.069579  0.086261  0.015473     12.000000
 -0.065217  0.045844  0.019068     12.000000
 -0.055589  0.048731  0.018811     12.000000
 -0.045961  0.051618  0.018554     12.000000
 -0.036332  0.054505  0.018297     12.000000
 -0.026704  0.057392  0.018040     12.000000
 -0.017076  0.060279  0.017784     12.000000
  0.069251  0.096308  0.015216      6.000000
 -0.065546  0.055890  0.018811     12.000000
 -0.055918  0.058777  0.018554     12.000000
 -0.046289  0.061664  0.018297     12.000000
 -0.036661  0.064551  0.018040     12.000000
 -0.027033  0.067438  0.017784     12.000000
 -0.017404  0.070325  0.017527     12.000000
 -0.060947 -0.084760  0.022406      6.000000
 -0.051319 -0.081873  0.022149     12.000000
 -0.041690 -0.078986  0.021892     12.000000
 -0.032062 -0.076099  0.021635     12.000000
 -0.022434 -0.073212  0.021378     12.000000
 -0.051647 -0.071826  0.021892      6.000000
 -0.042019 -0.068940  0.021635     12.000000
 -0.032391 -0.066053  0.021378     12.000000
 -0.022762 -0.063166  0.021122     12.000000
 -0.042347 -0.058893  0.021378      6.000000
 -0.032719 -0.056006  0.021122     12.000000
 -0.023091 -0.053119  0.020865     12.000000
 -0.033048 -0.045960  0.020865      6.000000
 -0.023419 -0.043073  0.020608     12.000000
 -0.023748 -0.033026  0.020351      6.000000
  0.034127  0.047461  0.026676      2.000000
  0.043755  0.050348  0.026419      6.000000
  0.053384  0.053235  0.026162      6.000000
  0.063012  0.056122  0.025905      6.000000
  0.072640  0.059009  0.025648      6.000000
 -0.062156  0.018592  0.029243      6.000000
 -0.052528  0.021479  0.028986      6.000000
 -0.042899  0.024365  0.028730      6.000000
 -0.033271  0.027252  0.028473      6.000000
 -0.023643  0.030139  0.028216      6.000000
  0.043427  0.060394  0.026162      6.000000
  0.053055  0.063281  0.025905     12.000000
  0.062684  0.066168  0.025648     12.000000
  0.072312  0.069055  0.025392     12.000000
 -0.062485  0.028638  0.028986     12.000000
 -0.052856  0.031525  0.028730     12.000000
 -0.043228  0.034412  0.028473     12.000000
 -0.033600  0.037299  0.028216     12.000000
 -0.023971  0.040186  0.027959     12.000000
  0.052727  0.073328  0.025648      6.000000
  0.062355  0.076215  0.025392     12.000000
  0.071983  0.079102  0.025135     12.000000
 -0.062813  0.038684  0.028730     12.000000
 -0.053185  0.041571  0.028473     12.000000
 -0.043556  0.044458  0.028216     12.000000
 -0.033928  0.047345  0.027959     12.000000
 -0.024300  0.050232  0.027703     12.000000
  0.062027  0.086261  0.025135      6.000000
  0.071655  0.089148  0.024878     12.000000
 -0.063142  0.048731  0.028473     12.000000
 -0.053513  0.051618  0.028216     12.000000
 -0.043885  0.054505  0.027959     12.000000
 -0.034257  0.057392  0.027703     12.000000
 -0.024628  0.060279  0.027446     12.000000
  0.071326  0.099195  0.024621      6.000000
 -0.063470  0.058777  0.028216     12.000000
 -0.053842  0.061664  0.027959     12.000000
 -0.044213  0.064551  0.027703     12.000000
 -0.034585  0.067438  0.027446     12.000000
 -0.024957  0.070325  0.027189     12.000000
 -0.058871 -0.081873  0.031811      6.000000
 -0.049243 -0.078986  0.031554     12.000000
 -0.039615 -0.076099  0.031297     12.000000
 -0.029986 -0.073212  0.031041     12.000000
 -0.049571 -0.068940  0.031297      6.000000
 -0.039943 -0.066053  0.031041     12.000000
 -0.030315 -0.063166  0.030784     12.000000
 -0.040272 -0.056006  0.030784      6.000000
 -0.030643 -0.053119  0.030527     12.000000
 -0.030972 -0.043073  0.030270      6.000000
  0.045503  0.063281  0.035567      2.000000
  0.055131  0.066168  0.035311      6.000000
  0.064759  0.069055  0.035054      6.000000
  0.074388  0.071942  0.034797      6.000000
 -0.060409  0.031525  0.038392      6.000000
 -0.050780  0.034412  0.038135      6.000000
 -0.041152  0.037299  0.037878      6.000000
 -0.031524  0.040186  0.037622      6.000000
  0.054803  0.076215  0.035054      6.000000
  0.064431  0.079102  0.034797     12.000000
  0.074059  0.081989  0.034540     12.000000
 -0.060737  0.041571  0.038135     12.000000
 -0.051109  0.044458  0.037878     12.000000
 -0.041481  0.047345  0.037622     12.000000
 -0.031852  0.050232  0.037365     12.000000
  0.064102  0.089148  0.034540      6.000000
  0.073731  0.092035  0.034284     12.000000
 -0.061066  0.051618  0.037878     12.000000
 -0.051437  0.054505  0.037622     12.000000
 -0.041809  0.057392  0.037365     12.000000
 -0.032181  0.060279  0.037108     12.000000
  0.073402  0.102082  0.034027      6.000000
 -0.061394  0.061664  0.037622     12.000000
 -0.051766  0.064551  0.037365     12.000000
 -0.042138  0.067438  0.037108     12.000000
 -0.032509  0.070325  0.036851     12.000000
 -0.056795 -0.078986  0.041216      6.000000
 -0.047167 -0.076099  0.040960     12.000000
 -0.037539 -0.073212  0.040703     12.000000
 -0.047495 -0.066053  0.040703      6.000000
 -0.037867 -0.063166  0.040446     12.000000
 -0.038196 -0.053119  0.040189      6.000000
  0.056879  0.079102  0.044459      2.000000
  0.066507  0.081989  0.044202      6.000000
  0.076135  0.084876  0.043946      6.000000
 -0.058661  0.044458  0.047540      6.000000
 -0.049033  0.047345  0.047284      6.000000
 -0.039405  0.050232  0.047027      6.000000
  0.066178  0.092035  0.043946      6.000000
  0.075807  0.094922  0.043689     12.000000
 -0.058990  0.054505  0.047284     12.000000
 -0.049362  0.057392  0.047027     12.000000
 -0.039733  0.060279  0.046770     12.000000
  0.075478  0.104969  0.043432      6.000000
 -0.059318  0.064551  0.047027     12.000000
 -0.049690  0.067438  0.046770     12.000000
 -0.040062  0.070325  0.046513     12.000000
 -0.054719 -0.076099  0.050622      6.000000
 -0.045091 -0.073212  0.050365     12.000000
 -0.045420 -0.063166  0.050108      6.000000
  0.068254  0.094922  0.053351      2.000000
  0.077883  0.097809  0.053094      6.000000
 -0.056914  0.057392  0.056689      6.000000
 -0.047286  0.060279  0.056432      6.000000
  0.077554  0.107856  0.052838      6.000000
 -0.057242  0.067438  0.056432     12.000000
 -0.047614  0.070325  0.056176     12.000000
 -0.052644 -0.073212  0.060027      6.000000
  0.079630  0.110742  0.062243      2.000000
 -0.055167  0.070325  0.065838      6.000000
 


--------------------------------------------------------------------------------------------------------




 Dimension of arrays:
   k-points           NKPTS =    344   k-points in BZ     NKDIM =    344   number of bands    NBANDS=     68
   number of dos      NEDOS =    301   number of ions     NIONS =     14
   non local maximal  LDIM  =      6   non local SUM 2l+1 LMDIM =     18
   total plane-waves  NPLWV = 157464
   max r-space proj   IRMAX =      1   max aug-charges    IRDMAX=  27622
   dimension x,y,z NGX =    54 NGY =   54 NGZ =   54
   dimension x,y,z NGXF=   108 NGYF=  108 NGZF=  108
   support grid    NGXF=   108 NGYF=  108 NGZF=  108
   ions per type =               6   2   6
   NGX,Y,Z   is equivalent  to a cutoff of  12.81, 12.81, 12.81 a.u.
   NGXF,Y,Z  is equivalent  to a cutoff of  25.63, 25.63, 25.63 a.u.

 SYSTEM =  r-GeO2 ENCUT convergence test           
 POSCAR =  Ag6 Sb2 S6                              

 Startparameter for this run:
   NWRITE =      2    write-flag & timer
   PREC   = accura    normal or accurate (medium, high low for compatibility)
   ISTART =      0    job   : 0-new  1-cont  2-samecut
   ICHARG =      2    charge: 1-file 2-atom 10-const
   ISPIN  =      1    spin polarized calculation?
   LNONCOLLINEAR =      F non collinear calculations
   LSORBIT =      F    spin-orbit coupling
   INIWAV =      1    electr: 0-lowe 1-rand  2-diag
   LASPH  =      T    aspherical Exc in radial PAW
   METAGGA=      F    non-selfconsistent MetaGGA calc.

 Electronic Relaxation 1
   ENCUT  =  500.0 eV  36.75 Ry    6.06 a.u.  12.77 12.77 12.77*2*pi/ulx,y,z
   ENINI  =  500.0     initial cutoff
   ENAUG  =  412.5 eV  augmentation charge cutoff
   NELM   =     60;   NELMIN=  2; NELMDL= -5     # of ELM steps 
   EDIFF  = 0.1E-03   stopping-criterion for ELM
   LREAL  =      F    real-space projection
   NLSPLINE    = F    spline interpolate recip. space projectors
   LCOMPAT=      F    compatible to vasp.4.4
   GGA_COMPAT  = T    GGA compatible to vasp.4.4-vasp.4.6
   LMAXPAW     = -100 max onsite density
   LMAXMIX     =    2 max onsite mixed and CHGCAR
   VOSKOWN=      0    Vosko Wilk Nusair interpolation
   ROPT   =    0.00000   0.00000   0.00000
 Ionic relaxation
   EDIFFG = 0.1E-02   stopping-criterion for IOM
   NSW    =      0    number of steps for IOM
   NBLOCK =      1;   KBLOCK =      1    inner block; outer block 
   IBRION =     -1    ionic relax: 0-MD 1-quasi-New 2-CG
   NFREE  =      0    steps in history (QN), initial steepest desc. (CG)
   ISIF   =      2    stress and relaxation
   IWAVPR =     10    prediction:  0-non 1-charg 2-wave 3-comb
   ISYM   =      2    0-nonsym 1-usesym 2-fastsym
   LCORR  =      T    Harris-Foulkes like correction to forces

   POTIM  = 0.5000    time-step for ionic-motion
   TEIN   =    0.0    initial temperature
   TEBEG  =    0.0;   TEEND  =   0.0 temperature during run
   SMASS  =  -3.00    Nose mass-parameter (am)
   estimated Nose-frequenzy (Omega)   =  0.10E-29 period in steps =****** mass=  -0.112E-26a.u.
   SCALEE = 1.0000    scale energy and forces
   NPACO  =    256;   APACO  = 16.0  distance and # of slots for P.C.
   PSTRESS=    0.0 pullay stress

  Mass of Ions in am
   POMASS = 107.87121.75 32.07
  Ionic Valenz
   ZVAL   =  11.00  5.00  6.00
  Atomic Wigner-Seitz radii
   RWIGS  =  -1.00 -1.00 -1.00
  virtual crystal weights 
   VCA    =   1.00  1.00  1.00
   NELECT =     112.0000    total number of electrons
   NUPDOWN=      -1.0000    fix difference up-down

 DOS related values:
   EMIN   =  10.00;   EMAX   =-10.00  energy-range for DOS
   EFERMI =   0.00
   ISMEAR =     0;   SIGMA  =   0.05  broadening in eV -4-tet -1-fermi 0-gaus

 Electronic relaxation 2 (details)
   IALGO  =     38    algorithm
   LDIAG  =      T    sub-space diagonalisation (order eigenvalues)
   LSUBROT=      F    optimize rotation matrix (better conditioning)
   TURBO    =      0    0=normal 1=particle mesh
   IRESTART =      0    0=no restart 2=restart with 2 vectors
   NREBOOT  =      0    no. of reboots
   NMIN     =      0    reboot dimension
   EREF     =   0.00    reference energy to select bands
   IMIX   =      4    mixing-type and parameters
     AMIX     =   0.40;   BMIX     =  1.00
     AMIX_MAG =   1.60;   BMIX_MAG =  1.00
     AMIN     =   0.10
     WC   =   100.;   INIMIX=   1;  MIXPRE=   1;  MAXMIX= -45

 Intra band minimization:
   WEIMIN = 0.0000     energy-eigenvalue tresh-hold
   EBREAK =  0.37E-06  absolut break condition
   DEPER  =   0.30     relativ break condition  

   TIME   =   0.40     timestep for ELM

  volume/ion in A,a.u.               =      22.76       153.59
  Fermi-wavevector in a.u.,A,eV,Ry     =   1.155362  2.183318 18.161890  1.334861
  Thomas-Fermi vector in A             =   2.291991
 
 Write flags
   LWAVE        =      F    write WAVECAR
   LDOWNSAMPLE  =      F    k-point downsampling of WAVECAR
   LCHARG       =      F    write CHGCAR
   LVTOT        =      F    write LOCPOT, total local potential
   LVHAR        =      F    write LOCPOT, Hartree potential only
   LELF         =      F    write electronic localiz. function (ELF)
   LORBIT       =     11    0 simple, 1 ext, 2 COOP (PROOUT), +10 PAW based schemes


 Dipole corrections
   LMONO  =      F    monopole corrections only (constant potential shift)
   LDIPOL =      F    correct potential (dipole corrections)
   IDIPOL =      0    1-x, 2-y, 3-z, 4-all directions 
   EPSILON=  1.0000000 bulk dielectric constant

 Exchange correlation treatment:
   GGA     =    --    GGA type
   LEXCH   =     8    internal setting for exchange type
   VOSKOWN=      0    Vosko Wilk Nusair interpolation
   LHFCALC =     F    Hartree Fock is set to
   LHFONE  =     F    Hartree Fock one center treatment
   AEXX    =    0.0000 exact exchange contribution

 Linear response parameters
   LEPSILON=     F    determine dielectric tensor
   LRPA    =     F    only Hartree local field effects (RPA)
   LNABLA  =     F    use nabla operator in PAW spheres
   LVEL    =     F    velocity operator in full k-point grid
   LINTERFAST=   F  fast interpolation
   KINTER  =     0    interpolate to denser k-point grid
   CSHIFT  =0.1000    complex shift for real part using Kramers Kronig
   OMEGAMAX=  -1.0    maximum frequency
   DEG_THRESHOLD= 0.2000000E-02 threshold for treating states as degnerate
   RTIME   =   -0.100 relaxation time in fs
  (WPLASMAI=    0.000 imaginary part of plasma frequency in eV, 0.658/RTIME)
   DFIELD  = 0.0000000 0.0000000 0.0000000 field for delta impulse in time
 
 Orbital magnetization related:
   ORBITALMAG=     F  switch on orbital magnetization
   LCHIMAG   =     F  perturbation theory with respect to B field
   DQ        =  0.001000  dq finite difference perturbation B field
   LLRAUG    =     F  two centre corrections for induced B field



--------------------------------------------------------------------------------------------------------


 Static calculation
 charge density and potential will be updated during run
 non-spin polarized calculation
 Variant of blocked Davidson
 Davidson routine will perform the subspace rotation
 perform sub-space diagonalisation
    after iterative eigenvector-optimisation
 modified Broyden-mixing scheme, WC =      100.0
 initial mixing is a Kerker type mixing with AMIX =  0.4000 and BMIX =      1.0000
 Hartree-type preconditioning will be used
 using additional bands           12
 reciprocal scheme for non local part
 use partial core corrections
 calculate Harris-corrections to forces 
   (improved forces if not selfconsistent)
 use gradient corrections 
 use of overlap-Matrix (Vanderbilt PP)
 Gauss-broadening in eV      SIGMA  =   0.05


--------------------------------------------------------------------------------------------------------


  energy-cutoff  :      500.00
  volume of cell :      318.63
      direct lattice vectors                 reciprocal lattice vectors
     6.827374320  0.183287290 -1.563140350     0.144424842  0.043304249 -0.003851495
    -1.999787750  6.530504640 -1.563140310    -0.004927409  0.150696740 -0.003851521
     0.131792410  0.183287260  7.002791050     0.031138165  0.043304272  0.141080763

  length of vectors
     7.006428626  7.006429157  7.006428901     0.150826479  0.150826460  0.150826480


 
 k-points in units of 2pi/SCALE and weight: Automatic mesh                          
   0.00000000  0.00000000  0.00000000       0.000
   0.00962832  0.00288695 -0.00025677       0.002
   0.01925665  0.00577390 -0.00051353       0.002
   0.02888497  0.00866085 -0.00077030       0.002
   0.03851329  0.01154780 -0.00102707       0.002
   0.04814161  0.01443475 -0.00128383       0.002
   0.05776994  0.01732170 -0.00154060       0.002
   0.06739826  0.02020865 -0.00179736       0.002
   0.00929983  0.01293340 -0.00051353       0.002
   0.01892815  0.01582035 -0.00077030       0.004
   0.02855647  0.01870730 -0.00102707       0.004
   0.03818480  0.02159425 -0.00128383       0.004
   0.04781312  0.02448120 -0.00154060       0.004
   0.05744144  0.02736815 -0.00179737       0.004
   0.06706977  0.03025510 -0.00205413       0.004
  -0.06772675 -0.01016220  0.00154060       0.004
  -0.05809843 -0.00727525  0.00128383       0.004
  -0.04847011 -0.00438830  0.00102706       0.004
  -0.03884178 -0.00150135  0.00077030       0.004
  -0.02921346  0.00138560  0.00051353       0.004
  -0.01958514  0.00427255  0.00025676       0.004
  -0.00995682  0.00715950 -0.00000000       0.002
   0.01859966  0.02586680 -0.00102707       0.002
   0.02822798  0.02875375 -0.00128384       0.004
   0.03785630  0.03164070 -0.00154060       0.004
   0.04748463  0.03452765 -0.00179737       0.004
   0.05711295  0.03741460 -0.00205413       0.004
   0.06674127  0.04030155 -0.00231090       0.004
  -0.06805525 -0.00011575  0.00128383       0.004
  -0.05842692  0.00277120  0.00102706       0.004
  -0.04879860  0.00565815  0.00077030       0.004
  -0.03917028  0.00854510  0.00051353       0.004
  -0.02954196  0.01143205  0.00025676       0.004
  -0.01991363  0.01431900 -0.00000000       0.002
   0.02789949  0.03880020 -0.00154060       0.002
   0.03752781  0.04168715 -0.00179737       0.004
   0.04715613  0.04457410 -0.00205414       0.004
   0.05678445  0.04746105 -0.00231090       0.004
   0.06641278  0.05034800 -0.00256767       0.004
  -0.06838374  0.00993070  0.00102706       0.004
  -0.05875542  0.01281765  0.00077029       0.004
  -0.04912710  0.01570460  0.00051353       0.004
  -0.03949877  0.01859155  0.00025676       0.004
  -0.02987045  0.02147850 -0.00000001       0.002
   0.03719932  0.05173360 -0.00205414       0.002
   0.04682764  0.05462055 -0.00231090       0.004
   0.05645596  0.05750750 -0.00256767       0.004
   0.06608428  0.06039445 -0.00282444       0.004
  -0.06871224  0.01997715  0.00077029       0.004
  -0.05908391  0.02286410  0.00051353       0.004
  -0.04945559  0.02575105  0.00025676       0.004
  -0.03982727  0.02863800 -0.00000001       0.002
   0.04649914  0.06466700 -0.00256767       0.002
   0.05612747  0.06755395 -0.00282444       0.004
   0.06575579  0.07044090 -0.00308120       0.004
  -0.06904073  0.03002360  0.00051352       0.004
  -0.05941241  0.03291055  0.00025676       0.004
  -0.04978408  0.03579750 -0.00000001       0.002
   0.05579897  0.07760040 -0.00308121       0.002
   0.06542730  0.08048735 -0.00333797       0.004
  -0.06936922  0.04007005  0.00025676       0.004
  -0.05974090  0.04295700 -0.00000001       0.002
   0.06509880  0.09053380 -0.00359474       0.002
  -0.06969772  0.05011650 -0.00000001       0.002
   0.01137571  0.01582035  0.00889185       0.001
   0.02100403  0.01870730  0.00863508       0.002
   0.03063235  0.02159425  0.00837832       0.002
   0.04026067  0.02448120  0.00812155       0.002
   0.04988900  0.02736815  0.00786478       0.002
   0.05951732  0.03025510  0.00760802       0.002
   0.06914564  0.03314205  0.00735125       0.002
  -0.06565088 -0.00727525  0.01094598       0.002
  -0.05602255 -0.00438830  0.01068921       0.002
  -0.04639423 -0.00150135  0.01043245       0.002
  -0.03676591  0.00138560  0.01017568       0.002
  -0.02713758  0.00427255  0.00991892       0.002
  -0.01750926  0.00715950  0.00966215       0.002
  -0.00788094  0.01004645  0.00940538       0.002
   0.02067554  0.02875375  0.00837832       0.002
   0.03030386  0.03164070  0.00812155       0.004
   0.03993218  0.03452765  0.00786478       0.004
   0.04956050  0.03741460  0.00760802       0.004
   0.05918883  0.04030155  0.00735125       0.004
   0.06881715  0.04318850  0.00709448       0.004
  -0.06597937  0.00277120  0.01068921       0.004
  -0.05635105  0.00565815  0.01043245       0.004
  -0.04672272  0.00854510  0.01017568       0.004
  -0.03709440  0.01143205  0.00991891       0.004
  -0.02746608  0.01431900  0.00966215       0.004
  -0.01783776  0.01720595  0.00940538       0.004
  -0.00820943  0.02009290  0.00914861       0.004
   0.02997536  0.04168715  0.00786478       0.002
   0.03960369  0.04457410  0.00760801       0.004
   0.04923201  0.04746105  0.00735125       0.004
   0.05886033  0.05034800  0.00709448       0.004
   0.06848866  0.05323495  0.00683772       0.004
  -0.06630786  0.01281765  0.01043244       0.004
  -0.05667954  0.01570460  0.01017568       0.004
  -0.04705122  0.01859155  0.00991891       0.004
  -0.03742290  0.02147850  0.00966215       0.004
  -0.02779457  0.02436545  0.00940538       0.004
  -0.01816625  0.02725240  0.00914861       0.004
  -0.00853793  0.03013935  0.00889185       0.004
   0.03927519  0.05462055  0.00735125       0.002
   0.04890352  0.05750750  0.00709448       0.004
   0.05853184  0.06039445  0.00683771       0.004
   0.06816016  0.06328140  0.00658095       0.004
  -0.06663636  0.02286410  0.01017568       0.004
  -0.05700803  0.02575105  0.00991891       0.004
  -0.04737971  0.02863800  0.00966214       0.004
  -0.03775139  0.03152495  0.00940538       0.004
  -0.02812307  0.03441190  0.00914861       0.004
  -0.01849474  0.03729885  0.00889184       0.004
  -0.00886642  0.04018580  0.00863508       0.004
   0.04857502  0.06755395  0.00683771       0.002
   0.05820334  0.07044090  0.00658095       0.004
   0.06783167  0.07332785  0.00632418       0.004
  -0.06696485  0.03291055  0.00991891       0.004
  -0.05733653  0.03579750  0.00966214       0.004
  -0.04770821  0.03868445  0.00940538       0.004
  -0.03807988  0.04157140  0.00914861       0.004
  -0.02845156  0.04445835  0.00889184       0.004
  -0.01882324  0.04734530  0.00863508       0.004
  -0.00919491  0.05023225  0.00837831       0.004
   0.05787485  0.08048735  0.00632418       0.002
   0.06750317  0.08337430  0.00606741       0.004
  -0.06729335  0.04295700  0.00966214       0.004
  -0.05766502  0.04584395  0.00940537       0.004
  -0.04803670  0.04873090  0.00914861       0.004
  -0.03840838  0.05161785  0.00889184       0.004
  -0.02878005  0.05450480  0.00863507       0.004
  -0.01915173  0.05739175  0.00837831       0.004
  -0.00952341  0.06027870  0.00812154       0.004
   0.06717468  0.09342075  0.00581064       0.002
  -0.06762184  0.05300345  0.00940537       0.004
  -0.05799352  0.05589040  0.00914861       0.004
  -0.04836519  0.05877735  0.00889184       0.004
  -0.03873687  0.06166430  0.00863507       0.004
  -0.02910855  0.06455125  0.00837831       0.004
  -0.01948023  0.06743820  0.00812154       0.004
  -0.00985190  0.07032515  0.00786477       0.004
  -0.06302292 -0.08764684  0.01300013       0.002
  -0.05339460 -0.08475989  0.01274336       0.004
  -0.04376628 -0.08187294  0.01248659       0.004
  -0.03413796 -0.07898599  0.01222983       0.004
  -0.02450963 -0.07609904  0.01197306       0.004
  -0.01488131 -0.07321209  0.01171629       0.004
  -0.05372310 -0.07471344  0.01248659       0.002
  -0.04409477 -0.07182649  0.01222982       0.004
  -0.03446645 -0.06893954  0.01197306       0.004
  -0.02483813 -0.06605259  0.01171629       0.004
  -0.01520980 -0.06316564  0.01145953       0.004
  -0.04442327 -0.06178005  0.01197306       0.002
  -0.03479494 -0.05889310  0.01171629       0.004
  -0.02516662 -0.05600615  0.01145952       0.004
  -0.01553830 -0.05311920  0.01120276       0.004
  -0.03512344 -0.04884665  0.01145952       0.002
  -0.02549511 -0.04595970  0.01120276       0.004
  -0.01586679 -0.04307275  0.01094599       0.004
  -0.02582361 -0.03591325  0.01094599       0.002
  -0.01619529 -0.03302630  0.01068922       0.004
  -0.01652378 -0.02297985  0.01043245       0.002
   0.02275141  0.03164070  0.01778370       0.001
   0.03237974  0.03452765  0.01752693       0.002
   0.04200806  0.03741460  0.01727017       0.002
   0.05163638  0.04030155  0.01701340       0.002
   0.06126470  0.04318850  0.01675663       0.002
   0.07089303  0.04607545  0.01649987       0.002
  -0.06390349  0.00565815  0.02009460       0.002
  -0.05427517  0.00854510  0.01983783       0.002
  -0.04464685  0.01143205  0.01958106       0.002
  -0.03501852  0.01431900  0.01932430       0.002
  -0.02539020  0.01720595  0.01906753       0.002
  -0.01576188  0.02009290  0.01881076       0.002
   0.03205124  0.04457410  0.01727017       0.002
   0.04167956  0.04746105  0.01701340       0.004
   0.05130789  0.05034800  0.01675663       0.004
   0.06093621  0.05323495  0.01649987       0.004
   0.07056453  0.05612190  0.01624310       0.004
  -0.06423199  0.01570460  0.01983783       0.004
  -0.05460366  0.01859155  0.01958106       0.004
  -0.04497534  0.02147850  0.01932430       0.004
  -0.03534702  0.02436545  0.01906753       0.004
  -0.02571869  0.02725240  0.01881076       0.004
  -0.01609037  0.03013935  0.01855400       0.004
   0.04135107  0.05750750  0.01675663       0.002
   0.05097939  0.06039445  0.01649986       0.004
   0.06060772  0.06328140  0.01624310       0.004
   0.07023604  0.06616835  0.01598633       0.004
  -0.06456048  0.02575105  0.01958106       0.004
  -0.05493216  0.02863800  0.01932429       0.004
  -0.04530383  0.03152495  0.01906753       0.004
  -0.03567551  0.03441190  0.01881076       0.004
  -0.02604719  0.03729885  0.01855400       0.004
  -0.01641887  0.04018580  0.01829723       0.004
   0.05065090  0.07044090  0.01624310       0.002
   0.06027922  0.07332785  0.01598633       0.004
   0.06990755  0.07621480  0.01572956       0.004
  -0.06488897  0.03579750  0.01932429       0.004
  -0.05526065  0.03868445  0.01906753       0.004
  -0.04563233  0.04157140  0.01881076       0.004
  -0.03600401  0.04445835  0.01855399       0.004
  -0.02637568  0.04734530  0.01829723       0.004
  -0.01674736  0.05023225  0.01804046       0.004
   0.05995073  0.08337430  0.01572956       0.002
   0.06957905  0.08626125  0.01547280       0.004
  -0.06521747  0.04584395  0.01906752       0.004
  -0.05558914  0.04873090  0.01881076       0.004
  -0.04596082  0.05161785  0.01855399       0.004
  -0.03633250  0.05450480  0.01829723       0.004
  -0.02670418  0.05739175  0.01804046       0.004
  -0.01707585  0.06027870  0.01778369       0.004
   0.06925056  0.09630770  0.01521603       0.002
  -0.06554596  0.05589040  0.01881076       0.004
  -0.05591764  0.05877735  0.01855399       0.004
  -0.04628932  0.06166430  0.01829722       0.004
  -0.03666099  0.06455125  0.01804046       0.004
  -0.02703267  0.06743820  0.01778369       0.004
  -0.01740435  0.07032515  0.01752692       0.004
  -0.06094705 -0.08475989  0.02240551       0.002
  -0.05131872 -0.08187294  0.02214874       0.004
  -0.04169040 -0.07898599  0.02189198       0.004
  -0.03206208 -0.07609904  0.02163521       0.004
  -0.02243376 -0.07321209  0.02137844       0.004
  -0.05164722 -0.07182649  0.02189197       0.002
  -0.04201889 -0.06893954  0.02163521       0.004
  -0.03239057 -0.06605259  0.02137844       0.004
  -0.02276225 -0.06316564  0.02112168       0.004
  -0.04234739 -0.05889309  0.02137844       0.002
  -0.03271907 -0.05600614  0.02112167       0.004
  -0.02309074 -0.05311919  0.02086491       0.004
  -0.03304756 -0.04595969  0.02086491       0.002
  -0.02341924 -0.04307274  0.02060814       0.004
  -0.02374773 -0.03302629  0.02035137       0.002
   0.03412712  0.04746105  0.02667555       0.001
   0.04375544  0.05034800  0.02641878       0.002
   0.05338377  0.05323495  0.02616202       0.002
   0.06301209  0.05612190  0.02590525       0.002
   0.07264041  0.05900885  0.02564848       0.002
  -0.06215611  0.01859155  0.02924321       0.002
  -0.05252779  0.02147850  0.02898645       0.002
  -0.04289946  0.02436545  0.02872968       0.002
  -0.03327114  0.02725240  0.02847291       0.002
  -0.02364282  0.03013935  0.02821615       0.002
   0.04342695  0.06039445  0.02616201       0.002
   0.05305527  0.06328140  0.02590525       0.004
   0.06268359  0.06616835  0.02564848       0.004
   0.07231192  0.06905530  0.02539172       0.004
  -0.06248460  0.02863800  0.02898644       0.004
  -0.05285628  0.03152495  0.02872968       0.004
  -0.04322796  0.03441190  0.02847291       0.004
  -0.03359963  0.03729885  0.02821615       0.004
  -0.02397131  0.04018580  0.02795938       0.004
   0.05272678  0.07332785  0.02564848       0.002
   0.06235510  0.07621480  0.02539171       0.004
   0.07198342  0.07910175  0.02513495       0.004
  -0.06281310  0.03868445  0.02872968       0.004
  -0.05318477  0.04157140  0.02847291       0.004
  -0.04355645  0.04445835  0.02821614       0.004
  -0.03392813  0.04734530  0.02795938       0.004
  -0.02429980  0.05023225  0.02770261       0.004
   0.06202661  0.08626125  0.02513495       0.002
   0.07165493  0.08914820  0.02487818       0.004
  -0.06314159  0.04873090  0.02847291       0.004
  -0.05351327  0.05161785  0.02821614       0.004
  -0.04388494  0.05450480  0.02795938       0.004
  -0.03425662  0.05739175  0.02770261       0.004
  -0.02462830  0.06027870  0.02744584       0.004
   0.07132643  0.09919465  0.02462141       0.002
  -0.06347008  0.05877735  0.02821614       0.004
  -0.05384176  0.06166430  0.02795937       0.004
  -0.04421344  0.06455125  0.02770261       0.004
  -0.03458512  0.06743820  0.02744584       0.004
  -0.02495679  0.07032515  0.02718908       0.004
  -0.05887117 -0.08187294  0.03181089       0.002
  -0.04924285 -0.07898599  0.03155413       0.004
  -0.03961452 -0.07609904  0.03129736       0.004
  -0.02998620 -0.07321209  0.03104059       0.004
  -0.04957134 -0.06893954  0.03129736       0.002
  -0.03994302 -0.06605259  0.03104059       0.004
  -0.03031469 -0.06316564  0.03078383       0.004
  -0.04027151 -0.05600614  0.03078382       0.002
  -0.03064319 -0.05311919  0.03052706       0.004
  -0.03097168 -0.04307274  0.03027029       0.002
   0.04550283  0.06328140  0.03556740       0.001
   0.05513115  0.06616835  0.03531063       0.002
   0.06475947  0.06905530  0.03505387       0.002
   0.07438779  0.07194225  0.03479710       0.002
  -0.06040872  0.03152495  0.03839183       0.002
  -0.05078040  0.03441190  0.03813506       0.002
  -0.04115208  0.03729885  0.03787830       0.002
  -0.03152376  0.04018580  0.03762153       0.002
   0.05480265  0.07621480  0.03505386       0.002
   0.06443098  0.07910175  0.03479710       0.004
   0.07405930  0.08198870  0.03454033       0.004
  -0.06073722  0.04157140  0.03813506       0.004
  -0.05110890  0.04445835  0.03787829       0.004
  -0.04148057  0.04734530  0.03762153       0.004
  -0.03185225  0.05023225  0.03736476       0.004
   0.06410248  0.08914820  0.03454033       0.002
   0.07373081  0.09203515  0.03428356       0.004
  -0.06106571  0.05161785  0.03787829       0.004
  -0.05143739  0.05450480  0.03762153       0.004
  -0.04180907  0.05739175  0.03736476       0.004
  -0.03218074  0.06027870  0.03710799       0.004
   0.07340231  0.10208160  0.03402680       0.002
  -0.06139421  0.06166430  0.03762152       0.004
  -0.05176588  0.06455125  0.03736476       0.004
  -0.04213756  0.06743820  0.03710799       0.004
  -0.03250924  0.07032515  0.03685123       0.004
  -0.05679529 -0.07898599  0.04121628       0.002
  -0.04716697 -0.07609904  0.04095951       0.004
  -0.03753865 -0.07321209  0.04070275       0.004
  -0.04749546 -0.06605259  0.04070274       0.002
  -0.03786714 -0.06316564  0.04044598       0.004
  -0.03819563 -0.05311919  0.04018921       0.002
   0.05687853  0.07910175  0.04445925       0.001
   0.06650686  0.08198870  0.04420248       0.002
   0.07613518  0.08487565  0.04394572       0.002
  -0.05866134  0.04445835  0.04754045       0.002
  -0.04903302  0.04734530  0.04728368       0.002
  -0.03940470  0.05023225  0.04702691       0.002
   0.06617836  0.09203515  0.04394571       0.002
   0.07580668  0.09492210  0.04368895       0.004
  -0.05898983  0.05450480  0.04728368       0.004
  -0.04936151  0.05739175  0.04702691       0.004
  -0.03973319  0.06027870  0.04677014       0.004
   0.07547819  0.10496855  0.04343218       0.002
  -0.05931833  0.06455125  0.04702691       0.004
  -0.04969001  0.06743820  0.04677014       0.004
  -0.04006168  0.07032515  0.04651338       0.004
  -0.05471941 -0.07609904  0.05062166       0.002
  -0.04509109 -0.07321209  0.05036490       0.004
  -0.04541958 -0.06316564  0.05010813       0.002
   0.06825424  0.09492210  0.05335110       0.001
   0.07788256  0.09780905  0.05309433       0.002
  -0.05691396  0.05739176  0.05668906       0.002
  -0.04728563  0.06027871  0.05643229       0.002
   0.07755407  0.10785550  0.05283756       0.002
  -0.05724245  0.06743820  0.05643229       0.004
  -0.04761413  0.07032515  0.05617553       0.004
  -0.05264354 -0.07321209  0.06002705       0.002
   0.07962995  0.11074246  0.06224295       0.001
  -0.05516657  0.07032516  0.06583768       0.002
 
 k-points in reciprocal lattice and weights: Automatic mesh                          
   0.00000000  0.00000000  0.00000000       0.000
   0.06666667  0.00000000  0.00000000       0.002
   0.13333333  0.00000000  0.00000000       0.002
   0.20000000 -0.00000000  0.00000000       0.002
   0.26666667 -0.00000000  0.00000000       0.002
   0.33333333 -0.00000000  0.00000000       0.002
   0.40000000 -0.00000000  0.00000000       0.002
   0.46666667 -0.00000000  0.00000000       0.002
   0.06666667  0.06666667  0.00000000       0.002
   0.13333333  0.06666667 -0.00000000       0.004
   0.20000000  0.06666667 -0.00000000       0.004
   0.26666667  0.06666667  0.00000000       0.004
   0.33333333  0.06666667  0.00000000       0.004
   0.40000000  0.06666667  0.00000000       0.004
   0.46666667  0.06666667  0.00000000       0.004
  -0.46666667  0.06666667 -0.00000000       0.004
  -0.40000000  0.06666667 -0.00000000       0.004
  -0.33333333  0.06666667 -0.00000000       0.004
  -0.26666667  0.06666667 -0.00000000       0.004
  -0.20000000  0.06666667 -0.00000000       0.004
  -0.13333333  0.06666667  0.00000000       0.004
  -0.06666667  0.06666667 -0.00000000       0.002
   0.13333333  0.13333333  0.00000000       0.002
   0.20000000  0.13333333  0.00000000       0.004
   0.26666667  0.13333333  0.00000000       0.004
   0.33333333  0.13333333  0.00000000       0.004
   0.40000000  0.13333333  0.00000000       0.004
   0.46666667  0.13333333  0.00000000       0.004
  -0.46666667  0.13333333 -0.00000000       0.004
  -0.40000000  0.13333333 -0.00000000       0.004
  -0.33333333  0.13333333 -0.00000000       0.004
  -0.26666667  0.13333333 -0.00000000       0.004
  -0.20000000  0.13333333 -0.00000000       0.004
  -0.13333333  0.13333333 -0.00000000       0.002
   0.20000000  0.20000000  0.00000000       0.002
   0.26666667  0.20000000  0.00000000       0.004
   0.33333333  0.20000000  0.00000000       0.004
   0.40000000  0.20000000  0.00000000       0.004
   0.46666667  0.20000000  0.00000000       0.004
  -0.46666667  0.20000000 -0.00000000       0.004
  -0.40000000  0.20000000 -0.00000000       0.004
  -0.33333333  0.20000000  0.00000000       0.004
  -0.26666667  0.20000000 -0.00000000       0.004
  -0.20000000  0.20000000  0.00000000       0.002
   0.26666667  0.26666667 -0.00000000       0.002
   0.33333333  0.26666667  0.00000000       0.004
   0.40000000  0.26666667  0.00000000       0.004
   0.46666667  0.26666667  0.00000000       0.004
  -0.46666667  0.26666667 -0.00000000       0.004
  -0.40000000  0.26666667 -0.00000000       0.004
  -0.33333333  0.26666667 -0.00000000       0.004
  -0.26666667  0.26666667 -0.00000000       0.002
   0.33333333  0.33333333  0.00000000       0.002
   0.40000000  0.33333333  0.00000000       0.004
   0.46666667  0.33333333  0.00000000       0.004
  -0.46666667  0.33333333 -0.00000000       0.004
  -0.40000000  0.33333333  0.00000000       0.004
  -0.33333333  0.33333333  0.00000000       0.002
   0.40000000  0.40000000  0.00000000       0.002
   0.46666667  0.40000000  0.00000000       0.004
  -0.46666667  0.40000000 -0.00000000       0.004
  -0.40000000  0.40000000  0.00000000       0.002
   0.46666667  0.46666667  0.00000000       0.002
  -0.46666667  0.46666667 -0.00000000       0.002
   0.06666667  0.06666667  0.06666667       0.001
   0.13333333  0.06666667  0.06666667       0.002
   0.20000000  0.06666667  0.06666667       0.002
   0.26666667  0.06666667  0.06666667       0.002
   0.33333333  0.06666667  0.06666667       0.002
   0.40000000  0.06666667  0.06666667       0.002
   0.46666667  0.06666667  0.06666667       0.002
  -0.46666667  0.06666667  0.06666667       0.002
  -0.40000000  0.06666667  0.06666667       0.002
  -0.33333333  0.06666667  0.06666667       0.002
  -0.26666667  0.06666667  0.06666667       0.002
  -0.20000000  0.06666667  0.06666667       0.002
  -0.13333333  0.06666667  0.06666667       0.002
  -0.06666667  0.06666667  0.06666667       0.002
   0.13333333  0.13333333  0.06666667       0.002
[...]
     18       0.4258      2.00000
     19       0.9595      2.00000
     20       0.9875      2.00000
     21       1.0167      2.00000
     22       1.0184      2.00000
     23       1.2631      2.00000
     24       1.2681      2.00000
     25       1.2964      2.00000
     26       1.3152      2.00000
     27       1.4741      2.00000
     28       1.4935      2.00000
     29       1.5043      2.00000
     30       1.5308      2.00000
     31       1.5422      2.00000
     32       1.5900      2.00000
     33       1.6202      2.00000
     34       1.6439      2.00000
     35       1.7164      2.00000
     36       1.7450      2.00000
     37       1.7684      2.00000
     38       1.7906      2.00000
     39       1.9286      2.00000
     40       1.9580      2.00000
     41       2.2512      2.00000
     42       2.2529      2.00000
     43       2.2663      2.00000
     44       2.3056      2.00000
     45       3.0738      2.00000
     46       3.1304      2.00000
     47       3.1875      2.00000
     48       3.2165      2.00000
     49       3.3496      2.00000
     50       3.3963      2.00000
     51       3.8274      2.00000
     52       3.9580      2.00000
     53       3.9850      2.00000
     54       4.1548      2.00000
     55       4.1657      2.00000
     56       4.2401      2.00000
     57       7.0372      0.00000
     58       7.1314      0.00000
     59       7.2037      0.00000
     60       7.2215      0.00000
     61       7.8003      0.00000
     62       7.8535      0.00000
     63       8.4602      0.00000
     64       8.5162      0.00000
     65       8.5327      0.00000
     66       8.5778      0.00000
     67       8.9538      0.00000
     68       9.0075      0.00000

 k-point   343 :       0.4667    0.4667    0.4667
  band No.  band energies     occupation 
      1      -8.4006      2.00000
      2      -8.3966      2.00000
      3      -7.7100      2.00000
      4      -7.7100      2.00000
      5      -7.6477      2.00000
      6      -7.6477      2.00000
      7      -3.5771      2.00000
      8      -3.5230      2.00000
      9      -0.3627      2.00000
     10      -0.3627      2.00000
     11      -0.3206      2.00000
     12      -0.3206      2.00000
     13      -0.1416      2.00000
     14      -0.1105      2.00000
     15       0.3566      2.00000
     16       0.3566      2.00000
     17       0.4162      2.00000
     18       0.4162      2.00000
     19       0.9799      2.00000
     20       0.9799      2.00000
     21       1.0488      2.00000
     22       1.0488      2.00000
     23       1.2058      2.00000
     24       1.2517      2.00000
     25       1.2878      2.00000
     26       1.3285      2.00000
     27       1.4672      2.00000
     28       1.4899      2.00000
     29       1.4899      2.00000
     30       1.5528      2.00000
     31       1.5528      2.00000
     32       1.5981      2.00000
     33       1.6027      2.00000
     34       1.6689      2.00000
     35       1.7341      2.00000
     36       1.7341      2.00000
     37       1.7818      2.00000
     38       1.7818      2.00000
     39       1.9104      2.00000
     40       1.9970      2.00000
     41       2.2146      2.00000
     42       2.2146      2.00000
     43       2.2859      2.00000
     44       2.2859      2.00000
     45       3.1131      2.00000
     46       3.1131      2.00000
     47       3.2181      2.00000
     48       3.2181      2.00000
     49       3.2756      2.00000
     50       3.5581      2.00000
     51       3.9741      2.00000
     52       3.9741      2.00000
     53       4.0596      2.00000
     54       4.0710      2.00000
     55       4.0955      2.00000
     56       4.0955      2.00000
     57       6.9771      0.00000
     58       6.9771      0.00000
     59       7.2902      0.00000
     60       7.2902      0.00000
     61       7.6607      0.00000
     62       7.8549      0.00000
     63       8.4782      0.00000
     64       8.4782      0.00000
     65       8.6750      0.00000
     66       8.6750      0.00000
     67       8.8122      0.00000
     68       9.0068      0.00000

 k-point   344 :      -0.4667    0.4667    0.4667
  band No.  band energies     occupation 
      1      -8.4007      2.00000
      2      -8.3983      2.00000
      3      -7.7051      2.00000
      4      -7.6854      2.00000
      5      -7.6722      2.00000
      6      -7.6510      2.00000
      7      -3.5591      2.00000
      8      -3.5405      2.00000
      9      -0.3813      2.00000
     10      -0.3679      2.00000
     11      -0.3186      2.00000
     12      -0.3041      2.00000
     13      -0.1299      2.00000
     14      -0.1187      2.00000
     15       0.3629      2.00000
     16       0.3787      2.00000
     17       0.3829      2.00000
     18       0.4074      2.00000
     19       0.9962      2.00000
     20       0.9988      2.00000
     21       1.0192      2.00000
     22       1.0237      2.00000
     23       1.2606      2.00000
     24       1.2693      2.00000
     25       1.2960      2.00000
     26       1.3127      2.00000
     27       1.4874      2.00000
     28       1.4999      2.00000
     29       1.5172      2.00000
     30       1.5211      2.00000
     31       1.5449      2.00000
     32       1.5578      2.00000
     33       1.6182      2.00000
     34       1.6387      2.00000
     35       1.7385      2.00000
     36       1.7507      2.00000
     37       1.7623      2.00000
     38       1.7826      2.00000
     39       1.9218      2.00000
     40       1.9464      2.00000
     41       2.2394      2.00000
     42       2.2562      2.00000
     43       2.2732      2.00000
     44       2.2735      2.00000
     45       3.1235      2.00000
     46       3.1542      2.00000
     47       3.1657      2.00000
     48       3.2125      2.00000
     49       3.3621      2.00000
     50       3.4559      2.00000
     51       3.9282      2.00000
     52       3.9990      2.00000
     53       4.0005      2.00000
     54       4.0948      2.00000
     55       4.1086      2.00000
     56       4.1581      2.00000
     57       7.0933      0.00000
     58       7.1031      0.00000
     59       7.1911      0.00000
     60       7.2148      0.00000
     61       7.7466      0.00000
     62       7.8167      0.00000
     63       8.4793      0.00000
     64       8.5089      0.00000
     65       8.5568      0.00000
     66       8.5794      0.00000
     67       8.8878      0.00000
     68       8.9535      0.00000


--------------------------------------------------------------------------------------------------------


 soft charge-density along one line, spin component           1
         0         1         2         3         4         5         6         7         8         9
 total charge-density along one line
 
 pseudopotential strength for first ion, spin component:           1
 -5.440  -0.005  -0.006  -0.011  -0.001  -5.615  -0.005  -0.005
 -0.005  -5.423  -0.010   0.007   0.013  -0.005  -5.599  -0.010
 -0.006  -0.010  -5.427  -0.000   0.011  -0.005  -0.010  -5.603
 -0.011   0.007  -0.000  -5.439  -0.013  -0.011   0.006  -0.000
 -0.001   0.013   0.011  -0.013  -5.451  -0.001   0.012   0.010
 -5.615  -0.005  -0.005  -0.011  -0.001  -5.758  -0.004  -0.005
 -0.005  -5.599  -0.010   0.006   0.012  -0.004  -5.743  -0.010
 -0.005  -0.010  -5.603  -0.000   0.010  -0.005  -0.010  -5.747
 -0.011   0.006  -0.000  -5.614  -0.013  -0.010   0.006  -0.000
 -0.001   0.012   0.010  -0.013  -5.626  -0.001   0.012   0.009
 -0.001   0.003  -0.008   0.010   0.018  -0.001   0.003  -0.008
 -0.001   0.004  -0.013   0.017   0.030  -0.001   0.004  -0.013
  0.002  -0.001   0.001  -0.000   0.002   0.002  -0.001   0.001
 -0.000  -0.002  -0.001   0.002   0.000  -0.000  -0.002  -0.001
 -0.002  -0.000  -0.001   0.000   0.002  -0.002  -0.000  -0.001
  0.002  -0.002   0.001   0.000   0.002   0.002  -0.001   0.001
  0.000  -0.003  -0.002   0.002   0.000   0.000  -0.003  -0.001
 -0.002   0.000  -0.002  -0.002   0.003  -0.002   0.000  -0.002
 total augmentation occupancy for first ion, spin component:           1
  3.083   0.130  -0.062  -0.013   0.035  -1.019  -0.153   0.060   0.014  -0.052  -0.088   0.012   0.012  -0.078  -0.077  -0.000
  0.130   2.985  -0.446   0.267   0.189  -0.153  -0.807   0.377  -0.234  -0.157   0.039   0.017  -0.039   0.090  -0.047   0.003
 -0.062  -0.446   3.742  -0.599  -1.046   0.061   0.378  -1.630   0.601   1.161   0.667  -0.104   0.054  -0.185   0.130  -0.002
 -0.013   0.267  -0.599   3.775   0.983   0.014  -0.234   0.601  -1.787  -1.102  -0.975   0.176  -0.090   0.174   0.126   0.004
  0.035   0.189  -1.046   0.983   4.538  -0.052  -0.157   1.161  -1.102  -2.616  -1.801   0.301  -0.063   0.128  -0.066   0.005
 -1.019  -0.153   0.061   0.014  -0.052   0.929   0.174  -0.060  -0.012   0.065   0.094  -0.025  -0.010   0.068   0.072   0.001
 -0.153  -0.807   0.378  -0.234  -0.157   0.174   0.616  -0.319   0.206   0.130  -0.066   0.014   0.029  -0.081   0.044  -0.002
  0.060   0.377  -1.630   0.601   1.161  -0.060  -0.319   1.491  -0.595  -1.254  -0.602   0.105  -0.052   0.154  -0.116   0.004
  0.014  -0.234   0.601  -1.787  -1.102  -0.012   0.206  -0.595   1.757   1.195   0.896  -0.185   0.078  -0.156  -0.120  -0.005
 -0.052  -0.157   1.161  -1.102  -2.616   0.065   0.130  -1.254   1.195   2.633   1.663  -0.331   0.057  -0.112   0.059  -0.004
 -0.088   0.039   0.667  -0.975  -1.801   0.094  -0.066  -0.602   0.896   1.663   1.987  -0.404   0.005  -0.022  -0.008   0.000
  0.012   0.017  -0.104   0.176   0.301  -0.025   0.014   0.105  -0.185  -0.331  -0.404   0.103   0.003  -0.003   0.002  -0.000
  0.012  -0.039   0.054  -0.090  -0.063  -0.010   0.029  -0.052   0.078   0.057   0.005   0.003   0.054  -0.012   0.007  -0.004
 -0.078   0.090  -0.185   0.174   0.128   0.068  -0.081   0.154  -0.156  -0.112  -0.022  -0.003  -0.012   0.102   0.051   0.001
 -0.077  -0.047   0.130   0.126  -0.066   0.072   0.044  -0.116  -0.120   0.059  -0.008   0.002   0.007   0.051   0.258  -0.001
 -0.000   0.003  -0.002   0.004   0.005   0.001  -0.002   0.004  -0.005  -0.004   0.000  -0.000  -0.004   0.001  -0.001   0.000
  0.004  -0.006   0.011  -0.009  -0.005  -0.004   0.006  -0.010   0.010   0.006   0.000   0.000   0.001  -0.007  -0.004  -0.000
  0.002   0.003  -0.007  -0.005   0.005  -0.005  -0.003   0.008   0.008  -0.004   0.001  -0.000  -0.001  -0.004  -0.019   0.000


------------------------ aborting loop because EDIFF is reached ----------------------------------------


 


 total charge     
 
# of ion       s       p       d       tot
------------------------------------------
    1        0.362   0.232   9.222   9.816
    2        0.356   0.232   9.240   9.828
    3        0.355   0.232   9.236   9.823
    4        0.365   0.233   9.221   9.819
    5        0.365   0.233   9.222   9.820
    6        0.365   0.233   9.227   9.824
    7        1.242   1.023   0.065   2.330
    8        1.242   1.023   0.065   2.331
    9        1.346   2.341   0.000   3.687
   10        1.350   2.321   0.000   3.671
   11        1.346   2.337   0.000   3.683
   12        1.347   2.339   0.000   3.686
   13        1.347   2.338   0.000   3.685
   14        1.350   2.323   0.000   3.673
--------------------------------------------------
tot         12.738  17.440  55.499  85.676
 
    CHARGE:  cpu time    9.6678: real time    9.6680
    FORLOC:  cpu time    0.0297: real time    0.0297
    FORNL :  cpu time   46.3348: real time   46.3358
    STRESS:  cpu time   64.6817: real time   64.6832
    FORCOR:  cpu time    0.2064: real time    0.2064
    FORHAR:  cpu time    0.0634: real time    0.0634
    MIXING:  cpu time    0.0072: real time    0.0072
    OFIELD:  cpu time    0.0000: real time    0.0000

  FORCE on cell =-STRESS in cart. coord.  units (eV):
  Direction    XX          YY          ZZ          XY          YZ          ZX
  --------------------------------------------------------------------------------------
  Alpha Z   207.75883   207.75883   207.75883
  Ewald   -2232.45441 -2122.64381 -2278.18769   163.49217   127.79422    91.89129
  Hartree   707.75700   804.57618   667.43469   144.14924   112.67457    81.01917
  E(xc)    -515.45259  -515.51519  -515.42652    -0.09319    -0.07284    -0.05237
  Local    -489.88745  -697.32161  -403.49734  -308.83840  -241.40419  -173.58280
  n-local   538.77132   539.88638   538.57319     0.50018     0.24139     0.33191
  augment   414.37368   413.54447   414.71914    -1.23472    -0.96517    -0.69407
  Kinetic  1371.30877  1373.87880  1370.52741     2.38213     0.56505     1.01113
  Fock        0.00000     0.00000     0.00000     0.00000     0.00000     0.00000
  -------------------------------------------------------------------------------------
  Total       2.74719     2.74604     2.74767    -0.00172    -0.00134    -0.00096
  in kB      13.81375    13.80796    13.81616    -0.00862    -0.00674    -0.00485
  external pressure =       13.81 kB  Pullay stress =        0.00 kB


 VOLUME and BASIS-vectors are now :
 -----------------------------------------------------------------------------
  energy-cutoff  :      500.00
  volume of cell :      318.63
      direct lattice vectors                 reciprocal lattice vectors
     6.827374320  0.183287290 -1.563140350     0.144424842  0.043304249 -0.003851495
    -1.999787750  6.530504640 -1.563140310    -0.004927409  0.150696740 -0.003851521
     0.131792410  0.183287260  7.002791050     0.031138165  0.043304272  0.141080763

  length of vectors
     7.006428626  7.006429157  7.006428901     0.150826479  0.150826460  0.150826480


 FORCES acting on ions
    electron-ion (+dipol)            ewald-force                    non-local-force                 convergence-correction
 -----------------------------------------------------------------------------------------------
   -.241E+02 -.847E+01 0.423E+02   0.240E+02 0.892E+01 -.433E+02   0.116E+00 -.432E+00 0.983E+00   0.178E-02 -.161E-02 0.234E-02
   0.410E+02 -.255E+02 -.106E+02   -.418E+02 0.256E+02 0.113E+02   0.847E+00 -.275E-01 -.670E+00   0.176E-02 0.117E-02 -.260E-02
   -.373E+02 0.307E+02 -.106E+02   0.376E+02 -.315E+02 0.113E+02   -.296E+00 0.794E+00 -.670E+00   0.549E-03 0.205E-02 -.260E-02
   0.353E+02 -.847E+01 -.336E+02   -.362E+02 0.892E+01 0.337E+02   0.982E+00 -.432E+00 -.125E+00   0.270E-02 -.161E-02 0.116E-02
   -.193E+02 0.307E+02 -.336E+02   0.200E+02 -.315E+02 0.337E+02   -.722E+00 0.794E+00 -.125E+00   -.239E-02 0.205E-02 0.116E-02
   -.363E+00 -.255E+02 0.423E+02   0.822E+00 0.256E+02 -.433E+02   -.446E+00 -.275E-01 0.983E+00   -.209E-02 0.117E-02 0.234E-02
   -.143E+02 -.199E+02 -.112E+02   0.202E+02 0.281E+02 0.158E+02   -.579E+01 -.805E+01 -.452E+01   -.212E-02 -.294E-02 -.166E-02
   -.143E+02 -.199E+02 -.112E+02   0.202E+02 0.281E+02 0.158E+02   -.579E+01 -.805E+01 -.452E+01   -.212E-02 -.294E-02 -.166E-02
   0.740E+02 -.417E+02 0.896E+01   -.753E+02 0.424E+02 -.129E+02   0.141E+01 -.831E+00 0.387E+01   -.173E-02 -.197E-02 -.308E-02
   -.480E+02 0.119E+02 0.696E+02   0.500E+02 -.156E+02 -.700E+02   -.209E+01 0.361E+01 0.436E+00   -.788E-03 -.385E-02 -.936E-03
   -.631E+02 0.569E+02 0.896E+01   0.642E+02 -.579E+02 -.129E+02   -.124E+01 0.107E+01 0.387E+01   -.132E-02 -.227E-02 -.308E-02
   0.560E+02 0.119E+02 -.634E+02   -.558E+02 -.156E+02 0.654E+02   -.818E-01 0.361E+01 -.213E+01   -.110E-02 -.385E-02 -.538E-03
   -.655E+01 0.569E+02 -.634E+02   0.295E+01 -.579E+02 0.654E+02   0.345E+01 0.107E+01 -.213E+01   -.330E-02 -.227E-02 -.538E-03
   0.266E+02 -.417E+02 0.696E+02   -.307E+02 0.424E+02 -.700E+02   0.409E+01 -.831E+00 0.436E+00   -.340E-02 -.197E-02 -.936E-03
 -----------------------------------------------------------------------------------------------
   0.556E+01 0.773E+01 0.434E+01   0.178E-13 0.213E-13 -.284E-13   -.555E+01 -.771E+01 -.433E+01   -.136E-01 -.189E-01 -.106E-01
 
 
 POSITION                                       TOTAL-FORCE (eV/Angst)
 -----------------------------------------------------------------------------------
      1.47562      5.08218      4.86075         0.005460      0.013959      0.001437
      5.76685      3.01679      3.04553         0.004170      0.009620      0.010807
      5.37160      3.16197     -0.45586         0.007792      0.007016      0.010807
      2.72533      1.81692      5.32271         0.002713      0.013959      0.004951
      3.20266      6.42722      0.25817         0.012369      0.007016      0.004951
     -0.13150      6.09875      1.35935         0.011494      0.009620      0.001437
      2.51118      3.49233      1.96287         0.162676      0.226236      0.127156
      0.03149      0.04379      0.02461         0.162676      0.226236      0.127156
     -0.76447      5.15061      3.91065         0.063870     -0.137984     -0.115399
      3.73326      5.06221     -1.68619        -0.100065     -0.135464      0.089847
      0.64652      3.99700      0.40926        -0.151139      0.016619     -0.115399
      3.61291      1.79696      0.52856         0.063024     -0.135464     -0.118800
      5.03275      0.91504      4.02995        -0.148481      0.016619     -0.118800
      1.26242      1.88536      3.37835        -0.096560     -0.137984      0.089847
 -----------------------------------------------------------------------------------
    total drift:                               -0.000953     -0.001323     -0.000744


--------------------------------------------------------------------------------------------------------



  FREE ENERGIE OF THE ION-ELECTRON SYSTEM (eV)
  ---------------------------------------------------
  free  energy   TOTEN  =       -51.26666911 eV

  energy  without entropy=      -51.26666911  energy(sigma->0) =      -51.26666911
 


--------------------------------------------------------------------------------------------------------


    POTLOK:  cpu time    0.5377: real time    0.5377


--------------------------------------------------------------------------------------------------------


     LOOP+:  cpu time 2189.0904: real time 2189.1967
    4ORBIT:  cpu time    0.0000: real time    0.0000
 


 total charge     
 
# of ion       s       p       d       tot
------------------------------------------
    1        0.362   0.232   9.222   9.816
    2        0.356   0.232   9.240   9.828
    3        0.355   0.232   9.236   9.823
    4        0.365   0.233   9.221   9.819
    5        0.365   0.233   9.222   9.820
    6        0.365   0.233   9.227   9.824
    7        1.242   1.023   0.065   2.330
    8        1.242   1.023   0.065   2.331
    9        1.346   2.341   0.000   3.687
   10        1.350   2.321   0.000   3.671
   11        1.346   2.337   0.000   3.683
   12        1.347   2.339   0.000   3.686
   13        1.347   2.338   0.000   3.685
   14        1.350   2.323   0.000   3.673
--------------------------------------------------
tot         12.738  17.440  55.499  85.676
 

 total amount of memory used by VASP MPI-rank0  2862381. kBytes
=======================================================================

   base      :      30000. kBytes
   nonl-proj :    1208813. kBytes
   fftplans  :      22159. kBytes
   grid      :      47215. kBytes
   one-center:        217. kBytes
   wavefun   :    1553977. kBytes
 
  
  
 General timing and accounting informations for this job:
 ========================================================
  
                  Total CPU time used (sec):     2207.994
                            User time (sec):     2200.699
                          System time (sec):        7.296
                         Elapsed time (sec):     2208.365
  
                   Maximum memory used (kb):     2705464.
                   Average memory used (kb):           0.
  
                          Minor page faults:       752620
                          Major page faults:            2
                 Voluntary context switches:           54
