PROCAR lm decomposed
# of k-points:    4         # of bands:   68         # of ions:   14

 k-point     1 :    0.00000000 0.00000000 0.00000000     weight = 0.12500000

band     1 # energy   -8.84051533 # occ.  2.00000000
 
ion      s     py     pz     px    dxy    dyz    dz2    dxz  x2-y2    tot
    1  0.005  0.000  0.000  0.000  0.000  0.000  0.000  0.000  0.002  0.008
    2  0.005  0.000  0.000  0.000  0.000  0.001  0.000  0.000  0.001  0.008
    3  0.005  0.000  0.000  0.000  0.001  0.000  0.000  0.000  0.000  0.008
    4  0.005  0.000  0.000  0.000  0.000  0.000  0.001  0.001  0.000  0.008
    5  0.005  0.000  0.000  0.000  0.000  0.001  0.001  0.000  0.000  0.008
    6  0.005  0.000  0.000  0.000  0.000  0.000  0.000  0.000  0.001  0.008
    7  0.049  0.002  0.000  0.001  0.000  0.000  0.000  0.000  0.000  0.052
    8  0.049  0.002  0.000  0.001  0.000  0.000  0.000  0.000  0.000  0.052
    9  0.081  0.000  0.001  0.000  0.000  0.000  0.000  0.000  0.000  0.082
   10  0.081  0.001  0.000  0.000  0.000  0.000  0.000  0.000  0.000  0.082
   11  0.081  0.000  0.001  0.000  0.000  0.000  0.000  0.000  0.000  0.082
   12  0.081  0.001  0.000  0.000  0.000  0.000  0.000  0.000  0.000  0.082
   13  0.081  0.000  0.000  0.001  0.000  0.000  0.000  0.000  0.000  0.082
   14  0.081  0.000  0.000  0.001  0.000  0.000  0.000  0.000  0.000  0.082
tot    0.613  0.005  0.003  0.004  0.002  0.003  0.003  0.002  0.005  0.639
 
band     2 # energy   -8.38490133 # occ.  2.00000000
 
ion      s     py     pz     px    dxy    dyz    dz2    dxz  x2-y2    tot
    1  0.001  0.000  0.000  0.000  0.000  0.000  0.001  0.001  0.003  0.007
    2  0.001  0.000  0.000  0.000  0.000  0.001  0.000  0.000  0.003  0.007
    3  0.001  0.000  0.000  0.000  0.003  0.000  0.000  0.001  0.001  0.007
    4  0.001  0.000  0.000  0.000  0.000  0.000  0.002  0.003  0.000  0.007
    5  0.001  0.000  0.000  0.000  0.000  0.003  0.002  0.000  0.000  0.007
    6  0.001  0.000  0.000  0.000  0.001  0.001  0.001  0.000  0.002  0.007
    7  0.052  0.002  0.001  0.001  0.000  0.000  0.000  0.000  0.000  0.056
    8  0.052  0.002  0.001  0.001  0.000  0.000  0.000  0.000  0.000  0.056
    9  0.085  0.000  0.001  0.000  0.000  0.000  0.000  0.000  0.000  0.087
   10  0.085  0.001  0.000  0.000  0.000  0.000  0.000  0.000  0.000  0.087
   11  0.085  0.000  0.001  0.000  0.000  0.000  0.000  0.000  0.000  0.087
   12  0.085  0.001  0.000  0.000  0.000  0.000  0.000  0.000  0.000  0.087
   13  0.085  0.000  0.000  0.001  0.000  0.000  0.000  0.000  0.000  0.087
   14  0.085  0.000  0.000  0.001  0.000  0.000  0.000  0.000  0.000  0.087
tot    0.623  0.008  0.006  0.006  0.004  0.006  0.008  0.006  0.010  0.676
 
band     3 # energy   -7.58647975 # occ.  2.00000000
 
ion      s     py     pz     px    dxy    dyz    dz2    dxz  x2-y2    tot
    1  0.004  0.000  0.000  0.000  0.000  0.000  0.000  0.000  0.003  0.007
    2  0.001  0.004  0.000  0.000  0.000  0.000  0.000  0.000  0.000  0.007
    3  0.000  0.002  0.000  0.003  0.000  0.000  0.000  0.000  0.000  0.006
    4  0.003  0.000  0.000  0.000  0.000  0.000  0.001  0.001  0.001  0.007
    5  0.001  0.002  0.002  0.000  0.000  0.000  0.001  0.000  0.000  0.006
    6  0.002  0.003  0.000  0.000  0.001  0.000  0.000  0.000  0.000  0.007
    7  0.000  0.003  0.001  0.003  0.000  0.000  0.000  0.001  0.000  0.007
    8  0.000  0.003  0.001  0.003  0.000  0.000  0.000  0.001  0.000  0.007
    9  0.071  0.000  0.000  0.000  0.000  0.000  0.000  0.000  0.000  0.071
   10  0.037  0.000  0.000  0.000  0.000  0.000  0.000  0.000  0.000  0.037
   11  0.205  0.000  0.001  0.000  0.000  0.000  0.000  0.000  0.000  0.205
   12  0.091  0.000  0.000  0.000  0.000  0.000  0.000  0.000  0.000  0.091
   13  0.211  0.000  0.000  0.000  0.000  0.000  0.000  0.000  0.000  0.211
   14  0.023  0.000  0.000  0.000  0.000  0.000  0.000  0.000  0.000  0.023
tot    0.647  0.017  0.005  0.010  0.001  0.001  0.002  0.003  0.005  0.692
 
band     4 # energy   -7.58647867 # occ.  2.00000000
 
ion      s     py     pz     px    dxy    dyz    dz2    dxz  x2-y2    tot
    1  0.000  0.000  0.001  0.005  0.000  0.000  0.000  0.000  0.000  0.006
    2  0.003  0.000  0.000  0.000  0.000  0.001  0.001  0.000  0.001  0.007
    3  0.003  0.000  0.000  0.001  0.001  0.001  0.001  0.001  0.000  0.007
    4  0.000  0.000  0.004  0.002  0.000  0.000  0.000  0.000  0.000  0.006
    5  0.002  0.000  0.002  0.000  0.001  0.001  0.000  0.000  0.000  0.007
    6  0.002  0.002  0.001  0.000  0.000  0.000  0.000  0.000  0.001  0.006
    7  0.000  0.000  0.004  0.002  0.000  0.000  0.000  0.000  0.000  0.007
    8  0.000  0.000  0.004  0.002  0.000  0.000  0.000  0.000  0.000  0.007
    9  0.142  0.000  0.000  0.000  0.000  0.000  0.000  0.000  0.000  0.142
   10  0.175  0.001  0.000  0.000  0.000  0.000  0.000  0.000  0.000  0.176
   11  0.008  0.000  0.000  0.000  0.000  0.000  0.000  0.000  0.000  0.008
   12  0.121  0.000  0.000  0.000  0.000  0.000  0.000  0.000  0.000  0.122
   13  0.002  0.000  0.000  0.000  0.000  0.000  0.000  0.000  0.000  0.002
   14  0.190  0.000  0.000  0.000  0.000  0.000  0.000  0.000  0.000  0.190
tot    0.647  0.004  0.017  0.012  0.002  0.003  0.002  0.002  0.003  0.692
 
band     5 # energy   -7.41585739 # occ.  2.00000000
 
ion      s     py     pz     px    dxy    dyz    dz2    dxz  x2-y2    tot
    1  0.001  0.000  0.000  0.000  0.000  0.000  0.002  0.002  0.002  0.007
    2  0.000  0.004  0.001  0.000  0.000  0.001  0.000  0.000  0.000  0.006
    3  0.000  0.001  0.001  0.004  0.000  0.000  0.000  0.000  0.000  0.006
    4  0.001  0.000  0.000  0.000  0.000  0.000  0.002  0.004  0.000  0.007
    5  0.000  0.000  0.003  0.000  0.000  0.001  0.001  0.000  0.000  0.006
    6  0.000  0.002  0.001  0.001  0.001  0.001  0.001  0.000  0.000  0.007
    7  0.000  0.003  0.001  0.003  0.000  0.000  0.000  0.001  0.000  0.007
    8  0.000  0.003  0.001  0.003  0.000  0.000  0.000  0.001  0.000  0.007
    9  0.078  0.000  0.000  0.000  0.000  0.000  0.000  0.000  0.000  0.079
   10  0.033  0.000  0.000  0.000  0.000  0.000  0.000  0.000  0.000  0.033
   11  0.207  0.000  0.001  0.000  0.000  0.000  0.000  0.000  0.000  0.208
   12  0.099  0.000  0.000  0.000  0.000  0.000  0.000  0.000  0.000  0.099
   13  0.214  0.000  0.000  0.001  0.000  0.000  0.000  0.000  0.000  0.215
   14  0.020  0.000  0.000  0.000  0.000  0.000  0.000  0.000  0.000  0.020
tot    0.654  0.012  0.009  0.011  0.002  0.003  0.005  0.007  0.003  0.707
 
band     6 # energy   -7.41585645 # occ.  2.00000000
 
ion      s     py     pz     px    dxy    dyz    dz2    dxz  x2-y2    tot
    1  0.000  0.000  0.000  0.005  0.000  0.000  0.000  0.000  0.000  0.006
    2  0.001  0.001  0.000  0.000  0.001  0.001  0.000  0.000  0.003  0.007
    3  0.001  0.001  0.000  0.000  0.003  0.000  0.000  0.002  0.000  0.007
    4  0.000  0.000  0.004  0.001  0.000  0.000  0.000  0.000  0.000  0.006
    5  0.001  0.001  0.001  0.000  0.000  0.002  0.001  0.001  0.000  0.007
    6  0.000  0.002  0.000  0.000  0.000  0.001  0.001  0.000  0.001  0.006
    7  0.000  0.000  0.005  0.002  0.000  0.000  0.000  0.000  0.000  0.007
    8  0.000  0.000  0.004  0.002  0.000  0.001  0.000  0.000  0.000  0.007
    9  0.139  0.000  0.000  0.000  0.000  0.000  0.000  0.000  0.000  0.139
   10  0.184  0.001  0.000  0.000  0.000  0.000  0.000  0.000  0.000  0.184
   11  0.010  0.000  0.000  0.000  0.000  0.000  0.000  0.000  0.000  0.010
   12  0.118  0.001  0.000  0.000  0.000  0.000  0.000  0.000  0.000  0.119
   13  0.003  0.000  0.000  0.000  0.000  0.000  0.000  0.000  0.000  0.003
   14  0.198  0.000  0.000  0.001  0.000  0.000  0.000  0.000  0.000  0.198
tot    0.654  0.006  0.015  0.011  0.005  0.005  0.002  0.003  0.004  0.707
 
band     7 # energy   -3.91348951 # occ.  2.00000000
 
ion      s     py     pz     px    dxy    dyz    dz2    dxz  x2-y2    tot
    1  0.002  0.000  0.001  0.000  0.000  0.000  0.000  0.004  0.004  0.012
    2  0.002  0.000  0.000  0.001  0.003  0.003  0.001  0.000  0.002  0.012
    3  0.002  0.000  0.000  0.000  0.005  0.001  0.001  0.002  0.000  0.012
    4  0.002  0.000  0.000  0.000  0.000  0.000  0.001  0.006  0.001  0.012
    5  0.002  0.000  0.000  0.000  0.000  0.005  0.001  0.001  0.002  0.012
    6  0.002  0.000  0.001  0.000  0.001  0.004  0.000  0.000  0.003  0.012
    7  0.192  0.000  0.000  0.000  0.000  0.000  0.000  0.000  0.000  0.192
    8  0.192  0.000  0.000  0.000  0.000  0.000  0.000  0.000  0.000  0.192
    9  0.018  0.008  0.003  0.003  0.000  0.000  0.000  0.000  0.000  0.033
   10  0.018  0.004  0.005  0.005  0.000  0.000  0.000  0.000  0.000  0.033
   11  0.018  0.001  0.003  0.011  0.000  0.000  0.000  0.000  0.000  0.033
   12  0.018  0.004  0.008  0.002  0.000  0.000  0.000  0.000  0.000  0.033
   13  0.018  0.001  0.008  0.006  0.000  0.000  0.000  0.000  0.000  0.033
   14  0.018  0.008  0.005  0.002  0.000  0.000  0.000  0.000  0.000  0.033
tot    0.505  0.028  0.033  0.032  0.010  0.013  0.006  0.013  0.012  0.652
 
band     8 # energy   -3.64442361 # occ.  2.00000000
 
ion      s     py     pz     px    dxy    dyz    dz2    dxz  x2-y2    tot
    1  0.003  0.000  0.000  0.000  0.001  0.000  0.000  0.004  0.004  0.012
    2  0.003  0.000  0.000  0.000  0.002  0.001  0.001  0.001  0.003  0.012
    3  0.003  0.000  0.000  0.000  0.005  0.002  0.001  0.000  0.000  0.012
    4  0.003  0.000  0.000  0.000  0.000  0.001  0.001  0.006  0.001  0.012
    5  0.003  0.000  0.000  0.000  0.001  0.007  0.001  0.000  0.000  0.012
    6  0.003  0.000  0.000  0.000  0.000  0.003  0.000  0.001  0.004  0.012
    7  0.203  0.000  0.000  0.000  0.000  0.000  0.000  0.000  0.000  0.204
    8  0.203  0.000  0.000  0.000  0.000  0.000  0.000  0.000  0.000  0.204
    9  0.017  0.007  0.003  0.005  0.000  0.000  0.000  0.000  0.000  0.032
   10  0.017  0.004  0.007  0.005  0.000  0.000  0.000  0.000  0.000  0.032
   11  0.017  0.002  0.003  0.011  0.000  0.000  0.000  0.000  0.000  0.032
   12  0.017  0.004  0.007  0.004  0.000  0.000  0.000  0.000  0.000  0.032
   13  0.017  0.002  0.007  0.006  0.000  0.000  0.000  0.000  0.000  0.032
   14  0.017  0.007  0.007  0.001  0.000  0.000  0.000  0.000  0.000  0.032
tot    0.529  0.026  0.036  0.033  0.009  0.013  0.005  0.012  0.012  0.675
 
band     9 # energy   -0.39750374 # occ.  2.00000000
 
ion      s     py     pz     px    dxy    dyz    dz2    dxz  x2-y2    tot
    1  0.016  0.000  0.000  0.002  0.000  0.000  0.008  0.033  0.019  0.078
    2  0.003  0.000  0.000  0.002  0.005  0.002  0.004  0.004  0.017  0.037
    3  0.001  0.002  0.000  0.000  0.000  0.020  0.003  0.011  0.002  0.039
    4  0.015  0.000  0.002  0.000  0.001  0.001  0.003  0.051  0.005  0.079
    5  0.005  0.002  0.001  0.000  0.016  0.010  0.000  0.018  0.000  0.053
    6  0.008  0.000  0.001  0.000  0.000  0.012  0.012  0.000  0.014  0.050
    7  0.000  0.008  0.000  0.013  0.000  0.000  0.000  0.000  0.000  0.022
    8  0.000  0.009  0.006  0.006  0.000  0.000  0.000  0.000  0.001  0.022
    9  0.000  0.001  0.002  0.016  0.000  0.000  0.000  0.000  0.000  0.020
   10  0.000  0.004  0.001  0.049  0.000  0.000  0.000  0.000  0.000  0.054
   11  0.000  0.005  0.002  0.027  0.000  0.000  0.000  0.000  0.000  0.034
   12  0.000  0.006  0.053  0.002  0.000  0.000  0.000  0.000  0.000  0.061
   13  0.000  0.001  0.039  0.007  0.000  0.000  0.000  0.000  0.000  0.047
   14  0.000  0.013  0.013  0.000  0.000  0.000  0.000  0.000  0.000  0.027
tot    0.049  0.053  0.121  0.124  0.023  0.045  0.030  0.117  0.058  0.621
 
band    10 # energy   -0.39750207 # occ.  2.00000000
 
ion      s     py     pz     px    dxy    dyz    dz2    dxz  x2-y2    tot
    1  0.000  0.001  0.002  0.000  0.017  0.006  0.005  0.003  0.000  0.034
    2  0.013  0.002  0.000  0.000  0.017  0.028  0.000  0.007  0.008  0.075
    3  0.015  0.000  0.000  0.002  0.043  0.003  0.002  0.008  0.001  0.073
    4  0.001  0.001  0.000  0.002  0.010  0.010  0.003  0.002  0.004  0.033
    5  0.012  0.001  0.001  0.000  0.002  0.036  0.006  0.000  0.001  0.059
    6  0.008  0.002  0.000  0.000  0.021  0.019  0.000  0.011  0.001  0.062
    7  0.000  0.002  0.017  0.002  0.000  0.000  0.000  0.000  0.000  0.022
    8  0.000  0.000  0.011  0.010  0.000  0.001  0.000  0.000  0.000  0.022
    9  0.000  0.059  0.000  0.001  0.000  0.000  0.000  0.000  0.000  0.061
   10  0.000  0.002  0.019  0.006  0.000  0.000  0.000  0.000  0.000  0.027
   11  0.000  0.014  0.001  0.032  0.000  0.000  0.000  0.000  0.000  0.047
   12  0.000  0.000  0.001  0.018  0.000  0.000  0.000  0.000  0.000  0.020
   13  0.000  0.018  0.015  0.000  0.000  0.000  0.000  0.000  0.000  0.034
   14  0.000  0.047  0.006  0.000  0.000  0.000  0.000  0.000  0.000  0.054
tot    0.049  0.149  0.075  0.074  0.109  0.102  0.016  0.031  0.015  0.621
 
band    11 # energy   -0.03572949 # occ.  2.00000000
 
ion      s     py     pz     px    dxy    dyz    dz2    dxz  x2-y2    tot
    1  0.010  0.000  0.000  0.000  0.022  0.012  0.023  0.002  0.034  0.104
    2  0.000  0.000  0.002  0.000  0.003  0.028  0.000  0.004  0.022  0.059
    3  0.000  0.000  0.002  0.000  0.001  0.014  0.001  0.026  0.033  0.077
    4  0.007  0.000  0.001  0.000  0.000  0.001  0.000  0.003  0.002  0.015
    5  0.010  0.000  0.001  0.000  0.000  0.002  0.004  0.001  0.003  0.022
    6  0.012  0.000  0.000  0.000  0.045  0.007  0.020  0.006  0.002  0.092
    7  0.000  0.010  0.005  0.007  0.000  0.000  0.000  0.000  0.000  0.022
    8  0.000  0.001  0.008  0.012  0.000  0.000  0.000  0.000  0.000  0.022
    9  0.002  0.025  0.033  0.003  0.000  0.000  0.000  0.000  0.000  0.063
   10  0.000  0.029  0.003  0.007  0.000  0.000  0.000  0.000  0.000  0.039
   11  0.002  0.013  0.034  0.019  0.000  0.000  0.000  0.000  0.000  0.068
   12  0.002  0.011  0.001  0.001  0.000  0.000  0.000  0.000  0.000  0.014
   13  0.001  0.000  0.000  0.005  0.000  0.000  0.000  0.000  0.000  0.007
   14  0.000  0.012  0.003  0.011  0.000  0.000  0.000  0.000  0.000  0.026
tot    0.046  0.103  0.093  0.065  0.072  0.064  0.048  0.042  0.096  0.629
 
band    12 # energy   -0.03572924 # occ.  2.00000000
 
ion      s     py     pz     px    dxy    dyz    dz2    dxz  x2-y2    tot
    1  0.003  0.000  0.000  0.001  0.000  0.002  0.001  0.002  0.008  0.019
    2  0.013  0.001  0.000  0.000  0.015  0.019  0.002  0.000  0.013  0.064
    3  0.013  0.000  0.000  0.001  0.001  0.000  0.002  0.010  0.018  0.046
    4  0.006  0.001  0.000  0.000  0.023  0.013  0.058  0.007  0.001  0.108
    5  0.003  0.000  0.000  0.001  0.012  0.003  0.055  0.017  0.011  0.101
    6  0.001  0.001  0.000  0.001  0.013  0.000  0.004  0.006  0.005  0.031
    7  0.000  0.000  0.013  0.008  0.000  0.000  0.000  0.000  0.000  0.022
    8  0.000  0.009  0.010  0.003  0.000  0.000  0.000  0.000  0.000  0.022
    9  0.000  0.004  0.001  0.004  0.000  0.000  0.000  0.000  0.000  0.009
   10  0.002  0.028  0.000  0.003  0.000  0.000  0.000  0.000  0.000  0.033
   11  0.001  0.004  0.000  0.000  0.000  0.000  0.000  0.000  0.000  0.004
   12  0.001  0.046  0.007  0.004  0.000  0.000  0.000  0.000  0.000  0.058
   13  0.001  0.016  0.008  0.040  0.000  0.000  0.000  0.000  0.000  0.066
   14  0.002  0.017  0.000  0.027  0.000  0.000  0.000  0.000  0.000  0.046
tot    0.046  0.126  0.039  0.095  0.064  0.038  0.123  0.042  0.055  0.629
 
band    13 # energy   -0.01664246 # occ.  2.00000000
 
ion      s     py     pz     px    dxy    dyz    dz2    dxz  x2-y2    tot
    1  0.003  0.000  0.001  0.001  0.005  0.000  0.002  0.043  0.008  0.064
    2  0.003  0.001  0.000  0.001  0.037  0.002  0.002  0.004  0.013  0.064
    3  0.003  0.000  0.000  0.002  0.049  0.006  0.002  0.000  0.001  0.064
    4  0.003  0.000  0.002  0.000  0.000  0.005  0.000  0.050  0.003  0.064
    5  0.003  0.000  0.002  0.000  0.000  0.055  0.000  0.000  0.003  0.064
    6  0.003  0.001  0.001  0.000  0.000  0.039  0.002  0.004  0.013  0.064
    7  0.016  0.012  0.004  0.006  0.000  0.000  0.000  0.000  0.000  0.038
    8  0.016  0.012  0.004  0.006  0.000  0.000  0.000  0.000  0.000  0.038
    9  0.002  0.003  0.004  0.023  0.000  0.000  0.000  0.000  0.000  0.031
   10  0.002  0.006  0.017  0.007  0.000  0.000  0.000  0.000  0.000  0.031
   11  0.002  0.016  0.004  0.010  0.000  0.000  0.000  0.000  0.000  0.031
   12  0.002  0.006  0.012  0.012  0.000  0.000  0.000  0.000  0.000  0.031
   13  0.002  0.016  0.012  0.001  0.000  0.000  0.000  0.000  0.000  0.031
   14  0.002  0.003  0.017  0.009  0.000  0.000  0.000  0.000  0.000  0.031
tot    0.060  0.075  0.080  0.078  0.092  0.107  0.009  0.102  0.042  0.646
 
band    14 # energy    0.10010585 # occ.  2.00000000
 
ion      s     py     pz     px    dxy    dyz    dz2    dxz  x2-y2    tot
    1  0.009  0.001  0.001  0.000  0.000  0.000  0.017  0.022  0.103  0.153
    2  0.007  0.000  0.000  0.000  0.006  0.014  0.011  0.000  0.021  0.059
    3  0.001  0.000  0.000  0.000  0.010  0.000  0.002  0.000  0.010  0.025
    4  0.004  0.001  0.000  0.001  0.000  0.000  0.029  0.077  0.008  0.120
    5  0.000  0.000  0.000  0.001  0.000  0.043  0.001  0.005  0.003  0.055
    6  0.011  0.000  0.000  0.000  0.035  0.003  0.013  0.001  0.059  0.122
    7  0.000  0.000  0.001  0.000  0.000  0.000  0.000  0.000  0.000  0.002
    8  0.000  0.000  0.000  0.001  0.000  0.000  0.000  0.000  0.000  0.002
    9  0.000  0.004  0.000  0.033  0.000  0.000  0.000  0.000  0.000  0.038
   10  0.000  0.000  0.015  0.025  0.000  0.000  0.000  0.000  0.000  0.041
   11  0.001  0.019  0.006  0.003  0.000  0.000  0.000  0.000  0.000  0.029
   12  0.001  0.004  0.020  0.007  0.000  0.000  0.000  0.000  0.000  0.032
   13  0.001  0.002  0.015  0.007  0.000  0.000  0.000  0.000  0.000  0.026
   14  0.000  0.015  0.029  0.000  0.000  0.000  0.000  0.000  0.000  0.044
tot    0.036  0.048  0.090  0.079  0.052  0.060  0.075  0.104  0.204  0.749
 
band    15 # energy    0.10010756 # occ.  2.00000000
 
ion      s     py     pz     px    dxy    dyz    dz2    dxz  x2-y2    tot
    1  0.002  0.000  0.001  0.000  0.000  0.000  0.000  0.019  0.004  0.025
    2  0.004  0.000  0.001  0.001  0.022  0.036  0.009  0.002  0.043  0.119
    3  0.009  0.000  0.001  0.000  0.050  0.013  0.018  0.039  0.022  0.153
    4  0.007  0.000  0.000  0.000  0.000  0.000  0.048  0.001  0.002  0.058
    5  0.011  0.000  0.000  0.000  0.003  0.027  0.076  0.003  0.004  0.123
    6  0.000  0.000  0.001  0.001  0.004  0.035  0.004  0.002  0.008  0.056
    7  0.000  0.000  0.000  0.001  0.000  0.000  0.000  0.000  0.000  0.002
    8  0.000  0.000  0.001  0.000  0.000  0.000  0.000  0.000  0.000  0.002
    9  0.001  0.017  0.014  0.000  0.000  0.000  0.000  0.000  0.000  0.032
   10  0.001  0.011  0.016  0.002  0.000  0.000  0.000  0.000  0.000  0.029
   11  0.000  0.022  0.008  0.011  0.000  0.000  0.000  0.000  0.000  0.041
   12  0.000  0.007  0.000  0.031  0.000  0.000  0.000  0.000  0.000  0.038
   13  0.000  0.038  0.005  0.001  0.000  0.000  0.000  0.000  0.000  0.044
   14  0.001  0.007  0.002  0.016  0.000  0.000  0.000  0.000  0.000  0.026
tot    0.036  0.103  0.050  0.064  0.079  0.112  0.155  0.066  0.083  0.749
 
band    16 # energy    0.20020108 # occ.  2.00000000
 
ion      s     py     pz     px    dxy    dyz    dz2    dxz  x2-y2    tot
    1  0.001  0.000  0.000  0.000  0.010  0.008  0.030  0.004  0.048  0.102
    2  0.001  0.000  0.000  0.000  0.005  0.005  0.022  0.005  0.063  0.102
    3  0.001  0.000  0.000  0.000  0.044  0.002  0.022  0.009  0.024  0.102
    4  0.001  0.000  0.000  0.000  0.012  0.006  0.051  0.032  0.000  0.102
    5  0.001  0.000  0.000  0.000  0.009  0.037  0.051  0.000  0.003  0.102
    6  0.001  0.000  0.000  0.000  0.003  0.008  0.030  0.004  0.055  0.102
    7  0.003  0.000  0.000  0.000  0.000  0.000  0.000  0.000  0.000  0.003
    8  0.003  0.000  0.000  0.000  0.000  0.000  0.000  0.000  0.000  0.003
    9  0.001  0.008  0.018  0.000  0.000  0.000  0.000  0.000  0.000  0.027
   10  0.001  0.009  0.001  0.016  0.000  0.000  0.000  0.000  0.000  0.027
   11  0.001  0.001  0.018  0.007  0.000  0.000  0.000  0.000  0.000  0.027
   12  0.001  0.009  0.013  0.004  0.000  0.000  0.000  0.000  0.000  0.027
   13  0.001  0.001  0.013  0.012  0.000  0.000  0.000  0.000  0.000  0.027
   14  0.001  0.008  0.001  0.017  0.000  0.000  0.000  0.000  0.000  0.027
tot    0.017  0.037  0.065  0.057  0.083  0.066  0.205  0.054  0.195  0.779
 
band    17 # energy    0.24743671 # occ.  2.00000000
 
ion      s     py     pz     px    dxy    dyz    dz2    dxz  x2-y2    tot
    1  0.009  0.000  0.001  0.001  0.039  0.004  0.000  0.013  0.006  0.074
    2  0.009  0.000  0.001  0.001  0.003  0.016  0.033  0.002  0.008  0.074
    3  0.009  0.001  0.001  0.000  0.000  0.008  0.033  0.011  0.011  0.074
    4  0.009  0.000  0.000  0.002  0.012  0.031  0.014  0.006  0.000  0.074
    5  0.009  0.001  0.000  0.001  0.008  0.000  0.014  0.036  0.005  0.074
    6  0.009  0.000  0.001  0.000  0.012  0.008  0.000  0.009  0.033  0.074
    7  0.001  0.004  0.001  0.002  0.000  0.000  0.000  0.000  0.000  0.007
    8  0.001  0.004  0.001  0.002  0.000  0.000  0.000  0.000  0.000  0.007
    9  0.001  0.009  0.018  0.004  0.000  0.000  0.000  0.000  0.000  0.033
   10  0.001  0.006  0.009  0.016  0.000  0.000  0.000  0.000  0.000  0.033
   11  0.001  0.009  0.018  0.005  0.000  0.000  0.000  0.000  0.000  0.033
   12  0.001  0.006  0.010  0.015  0.000  0.000  0.000  0.000  0.000  0.033
   13  0.001  0.009  0.010  0.013  0.000  0.000  0.000  0.000  0.000  0.033
   14  0.001  0.009  0.009  0.013  0.000  0.000  0.000  0.000  0.000  0.033
tot    0.064  0.059  0.081  0.075  0.074  0.067  0.094  0.078  0.063  0.656
 
band    18 # energy    0.57493500 # occ.  2.00000000
 
ion      s     py     pz     px    dxy    dyz    dz2    dxz  x2-y2    tot
    1  0.000  0.000  0.000  0.002  0.060  0.030  0.001  0.001  0.010  0.105
    2  0.000  0.002  0.000  0.001  0.004  0.004  0.000  0.000  0.011  0.023
    3  0.001  0.001  0.000  0.001  0.001  0.003  0.010  0.030  0.008  0.054
    4  0.001  0.000  0.000  0.000  0.007  0.112  0.000  0.001  0.016  0.137
    5  0.001  0.000  0.000  0.000  0.012  0.011  0.004  0.078  0.006  0.113
    6  0.000  0.003  0.000  0.000  0.001  0.002  0.001  0.016  0.025  0.049
    7  0.000  0.000  0.016  0.005  0.000  0.000  0.000  0.000  0.000  0.023
    8  0.000  0.001  0.018  0.003  0.000  0.000  0.000  0.000  0.000  0.023
    9  0.001  0.010  0.000  0.009  0.000  0.000  0.000  0.000  0.000  0.021
   10  0.002  0.026  0.006  0.001  0.000  0.000  0.000  0.000  0.000  0.035
   11  0.000  0.004  0.012  0.009  0.000  0.000  0.000  0.000  0.000  0.025
   12  0.001  0.037  0.000  0.002  0.000  0.000  0.000  0.000  0.000  0.040
   13  0.000  0.002  0.006  0.027  0.000  0.000  0.000  0.000  0.000  0.035
   14  0.001  0.011  0.009  0.004  0.000  0.000  0.000  0.000  0.000  0.026
tot    0.009  0.100  0.070  0.063  0.088  0.162  0.016  0.127  0.075  0.709
 
band    19 # energy    0.57493508 # occ.  2.00000000
 
ion      s     py     pz     px    dxy    dyz    dz2    dxz  x2-y2    tot
    1  0.001  0.000  0.001  0.001  0.033  0.001  0.015  0.003  0.001  0.056
    2  0.001  0.000  0.000  0.000  0.002  0.038  0.027  0.061  0.008  0.137
    3  0.000  0.000  0.000  0.001  0.007  0.028  0.017  0.041  0.010  0.106
    4  0.000  0.000  0.002  0.001  0.005  0.000  0.013  0.001  0.001  0.023
    5  0.000  0.001  0.002  0.000  0.010  0.007  0.009  0.017  0.001  0.048
    6  0.001  0.000  0.000  0.000  0.044  0.001  0.016  0.016  0.034  0.111
    7  0.000  0.010  0.002  0.011  0.000  0.000  0.000  0.000  0.000  0.023
    8  0.000  0.009  0.001  0.012  0.000  0.000  0.000  0.000  0.000  0.023
    9  0.001  0.001  0.037  0.000  0.000  0.000  0.000  0.000  0.000  0.040
   10  0.000  0.011  0.004  0.012  0.000  0.000  0.000  0.000  0.000  0.026
   11  0.002  0.000  0.025  0.008  0.000  0.000  0.000  0.000  0.000  0.035
   12  0.001  0.000  0.016  0.004  0.000  0.000  0.000  0.000  0.000  0.021
   13  0.001  0.002  0.011  0.012  0.000  0.000  0.000  0.000  0.000  0.025
   14  0.000  0.000  0.000  0.034  0.000  0.000  0.000  0.000  0.000  0.035
tot    0.009  0.035  0.101  0.097  0.101  0.074  0.097  0.139  0.057  0.709
 
band    20 # energy    0.68960184 # occ.  2.00000000
 
ion      s     py     pz     px    dxy    dyz    dz2    dxz  x2-y2    tot
    1  0.003  0.000  0.000  0.002  0.001  0.014  0.010  0.046  0.000  0.077
    2  0.003  0.002  0.000  0.000  0.050  0.009  0.003  0.000  0.010  0.077
    3  0.003  0.001  0.000  0.002  0.014  0.001  0.003  0.009  0.046  0.077
    4  0.003  0.000  0.002  0.000  0.012  0.004  0.013  0.023  0.020  0.077
    5  0.003  0.001  0.002  0.000  0.000  0.015  0.013  0.012  0.032  0.077
    6  0.003  0.002  0.000  0.000  0.002  0.058  0.010  0.002  0.000  0.077
    7  0.017  0.008  0.002  0.004  0.000  0.000  0.000  0.000  0.000  0.032
    8  0.017  0.008  0.002  0.004  0.000  0.000  0.000  0.000  0.000  0.032
    9  0.003  0.000  0.000  0.028  0.000  0.000  0.000  0.000  0.000  0.031
   10  0.003  0.002  0.025  0.000  0.000  0.000  0.000  0.000  0.000  0.031
   11  0.003  0.027  0.000  0.001  0.000  0.000  0.000  0.000  0.000  0.031
   12  0.003  0.002  0.001  0.024  0.000  0.000  0.000  0.000  0.000  0.031
   13  0.003  0.027  0.001  0.000  0.000  0.000  0.000  0.000  0.000  0.031
   14  0.003  0.000  0.025  0.002  0.000  0.000  0.000  0.000  0.000  0.031
tot    0.065  0.080  0.063  0.068  0.080  0.103  0.053  0.092  0.108  0.711
 
band    21 # energy    1.13595429 # occ.  2.00000000
 
ion      s     py     pz     px    dxy    dyz    dz2    dxz  x2-y2    tot
    1  0.002  0.000  0.000  0.000  0.019  0.004  0.133  0.003  0.002  0.163
    2  0.000  0.000  0.000  0.000  0.002  0.000  0.037  0.005  0.060  0.103
    3  0.000  0.000  0.000  0.001  0.001  0.075  0.018  0.000  0.001  0.097
    4  0.002  0.000  0.000  0.000  0.017  0.014  0.019  0.004  0.105  0.162
    5  0.000  0.000  0.001  0.000  0.083  0.005  0.009  0.007  0.002  0.107
    6  0.001  0.000  0.000  0.000  0.003  0.001  0.086  0.025  0.000  0.115
    7  0.000  0.000  0.002  0.001  0.000  0.000  0.000  0.000  0.000  0.004
    8  0.000  0.000  0.003  0.001  0.000  0.000  0.000  0.000  0.000  0.004
    9  0.000  0.001  0.004  0.011  0.000  0.000  0.000  0.000  0.000  0.017
   10  0.000  0.001  0.003  0.004  0.000  0.000  0.000  0.000  0.000  0.009
   11  0.000  0.003  0.011  0.000  0.000  0.000  0.000  0.000  0.000  0.015
   12  0.000  0.002  0.006  0.001  0.000  0.000  0.000  0.000  0.000  0.009
   13  0.000  0.002  0.001  0.010  0.000  0.000  0.000  0.000  0.000  0.013
   14  0.000  0.001  0.014  0.001  0.000  0.000  0.000  0.000  0.000  0.016
tot    0.006  0.011  0.047  0.030  0.125  0.099  0.302  0.045  0.170  0.834
 
band    22 # energy    1.13595489 # occ.  2.00000000
 
ion      s     py     pz     px    dxy    dyz    dz2    dxz  x2-y2    tot
    1  0.000  0.000  0.000  0.000  0.003  0.055  0.006  0.021  0.000  0.086
    2  0.001  0.001  0.000  0.000  0.001  0.022  0.000  0.075  0.045  0.145
    3  0.001  0.000  0.000  0.000  0.044  0.023  0.019  0.004  0.060  0.152
    4  0.000  0.000  0.000  0.000  0.050  0.000  0.000  0.029  0.008  0.087
    5  0.001  0.000  0.000  0.000  0.023  0.033  0.011  0.002  0.072  0.142
    6  0.001  0.001  0.000  0.000  0.018  0.004  0.054  0.052  0.004  0.134
    7  0.000  0.002  0.001  0.001  0.000  0.000  0.000  0.000  0.000  0.004
    8  0.000  0.002  0.000  0.002  0.000  0.000  0.000  0.000  0.000  0.004
    9  0.000  0.002  0.007  0.000  0.000  0.000  0.000  0.000  0.000  0.009
   10  0.000  0.005  0.011  0.001  0.000  0.000  0.000  0.000  0.000  0.017
   11  0.000  0.006  0.000  0.006  0.000  0.000  0.000  0.000  0.000  0.011
   12  0.000  0.004  0.000  0.013  0.000  0.000  0.000  0.000  0.000  0.018
   13  0.000  0.007  0.005  0.001  0.000  0.000  0.000  0.000  0.000  0.013
   14  0.000  0.002  0.000  0.008  0.000  0.000  0.000  0.000  0.000  0.010
tot    0.006  0.031  0.025  0.032  0.139  0.138  0.090  0.185  0.188  0.834
 
band    23 # energy    1.28432483 # occ.  2.00000000
 
ion      s     py     pz     px    dxy    dyz    dz2    dxz  x2-y2    tot
    1  0.000  0.000  0.000  0.000  0.115  0.000  0.032  0.000  0.000  0.148
    2  0.000  0.000  0.000  0.000  0.007  0.072  0.054  0.011  0.002  0.148
    3  0.000  0.000  0.000  0.000  0.002  0.000  0.054  0.083  0.008  0.148
    4  0.000  0.000  0.000  0.000  0.010  0.105  0.009  0.004  0.019  0.148
    5  0.000  0.000  0.000  0.000  0.000  0.002  0.009  0.108  0.029  0.148
    6  0.000  0.000  0.000  0.000  0.079  0.000  0.032  0.000  0.036  0.148
    7  0.000  0.001  0.000  0.000  0.000  0.000  0.000  0.000  0.000  0.002
    8  0.000  0.001  0.000  0.000  0.000  0.000  0.000  0.000  0.000  0.002
    9  0.000  0.000  0.000  0.000  0.000  0.000  0.000  0.000  0.000  0.001
   10  0.000  0.000  0.000  0.000  0.000  0.000  0.000  0.000  0.000  0.001
   11  0.000  0.000  0.000  0.000  0.000  0.000  0.000  0.000  0.000  0.001
   12  0.000  0.000  0.000  0.000  0.000  0.000  0.000  0.000  0.000  0.001
   13  0.000  0.000  0.000  0.000  0.000  0.000  0.000  0.000  0.000  0.001
   14  0.000  0.000  0.000  0.000  0.000  0.000  0.000  0.000  0.000  0.001
tot    0.002  0.003  0.003  0.003  0.213  0.180  0.190  0.207  0.095  0.895
 
band    24 # energy    1.35381795 # occ.  2.00000000
 
ion      s     py     pz     px    dxy    dyz    dz2    dxz  x2-y2    tot
    1  0.001  0.000  0.000  0.000  0.001  0.006  0.016  0.034  0.005  0.062
    2  0.002  0.000  0.000  0.000  0.026  0.007  0.108  0.000  0.001  0.145
    3  0.001  0.000  0.000  0.000  0.000  0.012  0.179  0.030  0.002  0.224
    4  0.001  0.000  0.000  0.000  0.005  0.002  0.003  0.016  0.038  0.065
    5  0.000  0.000  0.000  0.000  0.012  0.000  0.041  0.000  0.166  0.221
    6  0.002  0.000  0.000  0.000  0.014  0.020  0.010  0.014  0.078  0.139