<?xml version="1.0" encoding="ISO-8859-1"?>
<modeling>
 <generator>
  <i name="program" type="string">vasp </i>
  <i name="version" type="string">5.4.4.18Apr17-6-g9f103f2a35  </i>
  <i name="subversion" type="string">(build Jan 25 2021 16:16:55) complex            parallel </i>
  <i name="platform" type="string">LinuxIFC </i>
  <i name="date" type="string">2026 05 14 </i>
  <i name="time" type="string">20:07:37 </i>
 </generator>
 <incar>
  <i type="string" name="SYSTEM"> r-GeO2 ENCUT convergence test</i>
  <i type="int" name="ISTART">     0</i>
  <i type="string" name="PREC">accurate</i>
  <i type="string" name="ALGO"> Normal</i>
  <i type="int" name="ICHARG">     2</i>
  <i type="int" name="IBRION">    -1</i>
  <i name="EDIFF">      0.00010000</i>
  <i type="int" name="NSW">     0</i>
  <i name="ENCUT">    250.00000000</i>
  <i type="logical" name="LREAL"> F  </i>
  <i type="int" name="ISMEAR">     0</i>
  <i name="SIGMA">      0.05000000</i>
  <i type="logical" name="LWAVE"> F  </i>
  <i type="logical" name="LCHARG"> F  </i>
  <i type="int" name="LORBIT">    11</i>
  <i type="logical" name="LASPH"> T  </i>
  <v type="int" name="KPOINT_BSE">    -1     0     0     0</v>
  <i type="logical" name="LASPH"> T  </i>
 </incar>
 <structure name="primitive_cell" >
  <crystal>
   <varray name="basis" >
    <v>       6.82737432       0.18328729      -1.56314035 </v>
    <v>      -1.99978775       6.53050464      -1.56314031 </v>
    <v>       0.13179241       0.18328726       7.00279105 </v>
   </varray>
   <i name="volume">    318.63121791 </i>
   <varray name="rec_basis" >
    <v>       0.14442484       0.04330425      -0.00385150 </v>
    <v>      -0.00492741       0.15069674      -0.00385152 </v>
    <v>       0.03113817       0.04330427       0.14108076 </v>
   </varray>
  </crystal>
  <varray name="positions" >
   <v>       0.41447437      -0.26012495      -0.04821445 </v>
   <v>       0.09757356      -0.23511535      -0.24904275 </v>
   <v>      -0.23511535      -0.24904275       0.09757356 </v>
   <v>       0.26488465      -0.40242644       0.25095725 </v>
   <v>      -0.26012495      -0.04821445       0.41447437 </v>
   <v>      -0.04821445       0.41447437      -0.26012495 </v>
   <v>      -0.49365043      -0.49365043      -0.49365043 </v>
   <v>       0.45178555       0.23987505      -0.08552563 </v>
   <v>       0.25095725       0.26488465      -0.40242644 </v>
   <v>      -0.40242644       0.25095725       0.26488465 </v>
   <v>      -0.24904275       0.09757356      -0.23511535 </v>
   <v>       0.00634957       0.00634957       0.00634957 </v>
   <v>       0.23987505      -0.08552563       0.45178555 </v>
   <v>      -0.08552563       0.45178555       0.23987505 </v>
  </varray>
 </structure>
 <varray name="primitive_index" >
  <v type="int" >        1 </v>
  <v type="int" >        9 </v>
  <v type="int" >       10 </v>
  <v type="int" >       11 </v>
  <v type="int" >        5 </v>
  <v type="int" >        2 </v>
  <v type="int" >        7 </v>
  <v type="int" >        4 </v>
  <v type="int" >       14 </v>
  <v type="int" >       12 </v>
  <v type="int" >       13 </v>
  <v type="int" >        8 </v>
  <v type="int" >        6 </v>
  <v type="int" >        3 </v>
 </varray>
 <kpoints>
  <generation param="Gamma">
   <v type="int" name="divisions">       2        2        2 </v>
   <v name="usershift">      0.00000000       0.00000000       0.00000000 </v>
   <v name="genvec1">      0.50000000      -0.00000000      -0.00000000 </v>
   <v name="genvec2">     -0.00000000       0.50000000       0.00000000 </v>
   <v name="genvec3">      0.00000000       0.00000000       0.50000000 </v>
   <v name="shift">      0.00000000       0.00000000       0.00000000 </v>
  </generation>
  <varray name="kpointlist" >
   <v>       0.00000000       0.00000000       0.00000000 </v>
   <v>       0.50000000      -0.00000000       0.00000000 </v>
   <v>       0.50000000       0.50000000       0.00000000 </v>
   <v>       0.50000000       0.50000000       0.50000000 </v>
  </varray>
  <varray name="weights" >
   <v>       0.12500000 </v>
   <v>       0.37500000 </v>
   <v>       0.37500000 </v>
   <v>       0.12500000 </v>
  </varray>
 </kpoints>
 <parameters>
  <separator name="general" >
   <i type="string" name="SYSTEM">r-GeO2 ENCUT convergence test</i>
   <i type="logical" name="LCOMPAT"> F  </i>
  </separator>
  <separator name="electronic" >
   <i type="string" name="PREC">accura</i>
   <i name="ENMAX">    250.00000000</i>
   <i name="ENAUG">    412.49600000</i>
   <i name="EDIFF">      0.00010000</i>
   <i type="int" name="IALGO">    38</i>
   <i type="int" name="IWAVPR">    10</i>
   <i type="int" name="NBANDS">    68</i>
   <i name="NELECT">    112.00000000</i>
   <i type="int" name="TURBO">     0</i>
   <i type="int" name="IRESTART">     0</i>
   <i type="int" name="NREBOOT">     0</i>
   <i type="int" name="NMIN">     0</i>
   <i name="EREF">      0.00000000</i>
   <separator name="electronic smearing" >
    <i type="int" name="ISMEAR">     0</i>
    <i name="SIGMA">      0.05000000</i>
    <i name="KSPACING">      0.50000000</i>
    <i type="logical" name="KGAMMA"> T  </i>
   </separator>
   <separator name="electronic projectors" >
    <i type="logical" name="LREAL"> F  </i>
    <v name="ROPT">      0.00000000      0.00000000      0.00000000</v>
    <i type="int" name="LMAXPAW">  -100</i>
    <i type="int" name="LMAXMIX">     2</i>
    <i type="logical" name="NLSPLINE"> F  </i>
   </separator>
   <separator name="electronic startup" >
    <i type="int" name="ISTART">     0</i>
    <i type="int" name="ICHARG">     2</i>
    <i type="int" name="INIWAV">     1</i>
   </separator>
   <separator name="electronic spin" >
    <i type="int" name="ISPIN">     1</i>
    <i type="logical" name="LNONCOLLINEAR"> F  </i>
    <v name="MAGMOM">      1.00000000      1.00000000      1.00000000      1.00000000      1.00000000      1.00000000      1.00000000      1.00000000      1.00000000      1.00000000      1.00000000      1.00000000      1.00000000      1.00000000</v>
    <i name="NUPDOWN">     -1.00000000</i>
    <i type="logical" name="LSORBIT"> F  </i>
    <v name="SAXIS">      0.00000000      0.00000000      1.00000000</v>
    <i type="logical" name="LSPIRAL"> F  </i>
    <v name="QSPIRAL">      0.00000000      0.00000000      0.00000000</v>
    <i type="logical" name="LZEROZ"> F  </i>
   </separator>
   <separator name="electronic exchange-correlation" >
    <i type="logical" name="LASPH"> T  </i>
    <i type="logical" name="LMETAGGA"> F  </i>
   </separator>
   <separator name="electronic convergence" >
    <i type="int" name="NELM">    60</i>
    <i type="int" name="NELMDL">    -5</i>
    <i type="int" name="NELMIN">     2</i>
    <i name="ENINI">    250.00000000</i>
    <separator name="electronic convergence detail" >
     <i type="logical" name="LDIAG"> T  </i>
     <i type="logical" name="LSUBROT"> F  </i>
     <i name="WEIMIN">      0.00000000</i>
     <i name="EBREAK">      0.00000037</i>
     <i name="DEPER">      0.30000000</i>
     <i type="int" name="NRMM">     4</i>
     <i name="TIME">      0.40000000</i>
    </separator>
   </separator>
   <separator name="electronic mixer" >
    <i name="AMIX">      0.40000000</i>
    <i name="BMIX">      1.00000000</i>
    <i name="AMIN">      0.10000000</i>
    <i name="AMIX_MAG">      1.60000000</i>
    <i name="BMIX_MAG">      1.00000000</i>
    <separator name="electronic mixer details" >
     <i type="int" name="IMIX">     4</i>
     <i type="logical" name="MIXFIRST"> F  </i>
     <i type="int" name="MAXMIX">   -45</i>
     <i name="WC">    100.00000000</i>
     <i type="int" name="INIMIX">     1</i>
     <i type="int" name="MIXPRE">     1</i>
     <i type="int" name="MREMOVE">     5</i>
    </separator>
   </separator>
   <separator name="electronic dipolcorrection" >
    <i type="logical" name="LDIPOL"> F  </i>
    <i type="logical" name="LMONO"> F  </i>
    <i type="int" name="IDIPOL">     0</i>
    <i name="EPSILON">      1.00000000</i>
    <v name="DIPOL">   -100.00000000   -100.00000000   -100.00000000</v>
    <i name="EFIELD">      0.00000000</i>
   </separator>
  </separator>
  <separator name="grids" >
   <i type="int" name="NGX">    36</i>
   <i type="int" name="NGY">    36</i>
   <i type="int" name="NGZ">    36</i>
   <i type="int" name="NGXF">    72</i>
   <i type="int" name="NGYF">    72</i>
   <i type="int" name="NGZF">    72</i>
   <i type="logical" name="ADDGRID"> F  </i>
  </separator>
  <separator name="ionic" >
   <i type="int" name="NSW">     0</i>
   <i type="int" name="IBRION">    -1</i>
   <i type="int" name="MDALGO">     0</i>
   <i type="int" name="ISIF">     2</i>
   <i name="PSTRESS">      0.00000000</i>
   <i name="EDIFFG">      0.00100000</i>
   <i type="int" name="NFREE">     0</i>
   <i name="POTIM">      0.50000000</i>
   <i name="SMASS">     -3.00000000</i>
   <i name="SCALEE">      1.00000000</i>
  </separator>
  <separator name="ionic md" >
   <i name="TEBEG">      0.00010000</i>
   <i name="TEEND">      0.00010000</i>
   <i type="int" name="NBLOCK">     1</i>
   <i type="int" name="KBLOCK">     1</i>
   <i type="int" name="NPACO">   256</i>
   <i name="APACO">     16.00000000</i>
  </separator>
  <separator name="symmetry" >
   <i type="int" name="ISYM">     2</i>
   <i name="SYMPREC">      0.00001000</i>
  </separator>
  <separator name="dos" >
   <i type="int" name="LORBIT">    11</i>
   <v name="RWIGS">     -1.00000000     -1.00000000     -1.00000000</v>
   <i type="int" name="NEDOS">   301</i>
   <i name="EMIN">     10.00000000</i>
   <i name="EMAX">    -10.00000000</i>
   <i name="EFERMI">      0.00000000</i>
  </separator>
  <separator name="writing" >
   <i type="int" name="NWRITE">     2</i>
   <i type="logical" name="LWAVE"> F  </i>
   <i type="logical" name="LDOWNSAMPLE"> F  </i>
   <i type="logical" name="LCHARG"> F  </i>
   <i type="logical" name="LPARD"> F  </i>
   <i type="logical" name="LVTOT"> F  </i>
   <i type="logical" name="LVHAR"> F  </i>
   <i type="logical" name="LELF"> F  </i>
   <i type="logical" name="LOPTICS"> F  </i>
   <v name="STM">      0.00000000      0.00000000      0.00000000      0.00000000      0.00000000      0.00000000      0.00000000</v>
  </separator>
  <separator name="performance" >
   <i type="int" name="NPAR">     2</i>
   <i type="int" name="NSIM">     4</i>
   <i type="int" name="NBLK">    -1</i>
   <i type="logical" name="LPLANE"> T  </i>
   <i type="logical" name="LSCALAPACK"> T  </i>
   <i type="logical" name="LSCAAWARE"> F  </i>
   <i type="logical" name="LSCALU"> F  </i>
   <i type="logical" name="LASYNC"> F  </i>
   <i type="logical" name="LORBITALREAL"> F  </i>
  </separator>
  <separator name="miscellaneous" >
   <i type="int" name="IDIOT">     3</i>
   <i type="int" name="ISPECIAL">     0</i>
   <i type="logical" name="LMUSIC"> F  </i>
   <v name="POMASS">    107.86800000    121.75000000     32.06600000</v>
   <v name="DARWINR">      0.00000000      0.00000000      0.00000000</v>
   <v name="DARWINV">      1.00000000      1.00000000      1.00000000</v>
   <i type="logical" name="LCORR"> T  </i>
  </separator>
  <i type="logical" name="GGA_COMPAT"> T  </i>
  <i type="logical" name="LBERRY"> F  </i>
  <i type="int" name="ICORELEVEL">     0</i>
  <i type="logical" name="LDAU"> F  </i>
  <i type="int" name="I_CONSTRAINED_M">     0</i>
  <separator name="electronic exchange-correlation" >
   <i type="string" name="GGA">--</i>
   <i type="int" name="VOSKOWN">     0</i>
   <i type="logical" name="LHFCALC"> F  </i>
   <i type="string" name="PRECFOCK"></i>
   <i type="logical" name="LSYMGRAD"> F  </i>
   <i type="logical" name="LHFONE"> F  </i>
   <i type="logical" name="LRHFCALC"> F  </i>
   <i type="logical" name="LTHOMAS"> F  </i>
   <i type="logical" name="LMODELHF"> F  </i>
   <i name="ENCUT4O">     -1.00000000</i>
   <i type="int" name="EXXOEP">     0</i>
   <i type="int" name="FOURORBIT">     0</i>
   <i name="AEXX">      0.00000000</i>
   <i name="HFALPHA">      0.00000000</i>
   <i name="MCALPHA">      0.00000000</i>
   <i name="ALDAX">      1.00000000</i>
   <i name="AGGAX">      1.00000000</i>
   <i name="ALDAC">      1.00000000</i>
   <i name="AGGAC">      1.00000000</i>
   <i type="int" name="NKREDX">     1</i>
   <i type="int" name="NKREDY">     1</i>
   <i type="int" name="NKREDZ">     1</i>
   <i type="logical" name="SHIFTRED"> F  </i>
   <i type="logical" name="ODDONLY"> F  </i>
   <i type="logical" name="EVENONLY"> F  </i>
   <i type="int" name="LMAXFOCK">     0</i>
   <i type="int" name="NMAXFOCKAE">     0</i>
   <i type="logical" name="LFOCKAEDFT"> F  </i>
   <i name="HFSCREEN">      0.00000000</i>
   <i name="HFSCREENC">      0.00000000</i>
   <i type="int" name="NBANDSGWLOW">     0</i>
  </separator>
  <separator name="vdW DFT" >
   <i type="logical" name="LUSE_VDW"> F  </i>
   <i name="Zab_VDW">     -0.84910000</i>
   <i name="PARAM1">      0.12340000</i>
   <i name="PARAM2">      1.00000000</i>
   <i name="PARAM3">      0.00000000</i>
  </separator>
  <separator name="model GW" >
   <i type="int" name="MODEL_GW">     0</i>
   <i name="MODEL_EPS0">     13.65562362</i>
   <i name="MODEL_ALPHA">      1.00000000</i>
  </separator>
  <separator name="linear response parameters" >
   <i type="logical" name="LEPSILON"> F  </i>
   <i type="logical" name="LRPA"> F  </i>
   <i type="logical" name="LNABLA"> F  </i>
   <i type="logical" name="LVEL"> F  </i>
   <i type="int" name="KINTER">     0</i>
   <i name="CSHIFT">      0.10000000</i>
   <i name="OMEGAMAX">     -1.00000000</i>
   <i name="DEG_THRESHOLD">      0.00200000</i>
   <i name="RTIME">     -0.10000000</i>
   <i name="WPLASMAI">      0.00000000</i>
   <v name="DFIELD">      0.00000000      0.00000000      0.00000000</v>
   <v name="WPLASMA">      0.00000000      0.00000000      0.00000000      0.00000000      0.00000000      0.00000000      0.00000000      0.00000000      0.00000000</v>
  </separator>
  <separator name="orbital magnetization" >
   <i type="logical" name="NUCIND"> F  </i>
   <v name="MAGPOS">      0.00000000      0.00000000      0.00000000</v>
   <i type="logical" name="LNICSALL"> T  </i>
   <i type="logical" name="ORBITALMAG"> F  </i>
   <i type="logical" name="LMAGBLOCH"> F  </i>
   <i type="logical" name="LCHIMAG"> F  </i>
   <i type="logical" name="LGAUGE"> T  </i>
   <i type="int" name="MAGATOM">     0</i>
   <v name="MAGDIPOL">      0.00000000      0.00000000      0.00000000</v>
   <v name="AVECCONST">      0.00000000      0.00000000      0.00000000</v>
  </separator>
  <separator name="response functions" >
   <i type="logical" name="LADDER"> F  </i>
   <i type="logical" name="LRPAFORCE"> F  </i>
   <i type="logical" name="LFXC"> F  </i>
   <i type="logical" name="LHARTREE"> T  </i>
   <i type="int" name="IBSE">     0</i>
   <v type="int" name="KPOINT">    -1     0     0     0</v>
   <i type="logical" name="LTCTE"> F  </i>
   <i type="logical" name="LTETE"> F  </i>
   <i type="logical" name="LTRIPLET"> F  </i>
   <i type="logical" name="LFXCEPS"> F  </i>
   <i type="logical" name="LFXHEG"> F  </i>
   <i type="int" name="NATURALO">     2</i>
   <i type="logical" name="L2ORDER"> F  </i>
   <i type="logical" name="LMP2LT"> F  </i>
   <i type="logical" name="LUSEW"> F  </i>
   <i name="ENCUTGW">     -2.00000000</i>
   <i name="ENCUTGWSOFT">     -2.00000000</i>
   <i name="ENCUTLF">     -1.00000000</i>
   <i type="int" name="LMAXMP2">    -1</i>
   <i name="SCISSOR">      0.00000000</i>
   <i type="int" name="NOMEGA">     0</i>
   <i type="int" name="NOMEGAR">     0</i>
   <i type="int" name="NBANDSGW">    -1</i>
   <i type="int" name="NBANDSO">    -1</i>
   <i type="int" name="NBANDSV">    -1</i>
   <i type="int" name="NELM">     1</i>
   <i type="int" name="NELMHF">     1</i>
   <i type="int" name="DIM">     3</i>
   <i type="int" name="ANTIRES">     0</i>
   <i name="OMEGAMAX">    -30.00000000</i>
   <i name="OMEGAMIN">    -30.00000000</i>
   <i name="OMEGATL">   -200.00000000</i>
   <i type="int" name="OMEGAGRID">   140</i>
   <i name="CSHIFT">     -0.10000000</i>
   <i type="logical" name="SELFENERGY"> F  </i>
   <i type="logical" name="LSPECTRAL"> F  </i>
   <i type="logical" name="LSPECTRALGW"> F  </i>
   <i type="logical" name="LSINGLES"> F  </i>
   <i type="logical" name="LFERMIGW"> F  </i>
   <i type="logical" name="ODDONLYGW"> F  </i>
   <i type="logical" name="EVENONLYGW"> F  </i>
   <i type="int" name="NKREDLFX">     1</i>
   <i type="int" name="NKREDLFY">     1</i>
   <i type="int" name="NKREDLFZ">     1</i>
   <i type="int" name="MAXMEM">  2800</i>
   <i type="int" name="TELESCOPE">     0</i>
   <i type="int" name="TAUPAR">     1</i>
   <i type="int" name="OMEGAPAR">    -1</i>
   <i name="LAMBDA">      1.00000000</i>
  </separator>
  <separator name="External order field" >
   <i name="OFIELD_KAPPA">      0.00000000</i>
   <v name="OFIELD_K">      0.00000000      0.00000000      0.00000000</v>
   <i name="OFIELD_Q6_NEAR">      0.00000000</i>
   <i name="OFIELD_Q6_FAR">      0.00000000</i>
   <i name="OFIELD_A">      0.00000000</i>
  </separator>
 </parameters>
 <atominfo>
  <atoms>      14 </atoms>
  <types>       3 </types>
  <array name="atoms" >
   <dimension dim="1">ion</dimension>
   <field type="string">element</field>
   <field type="int">atomtype</field>
   <set>
    <rc><c>Ag</c><c>   1</c></rc>
    <rc><c>Ag</c><c>   1</c></rc>
    <rc><c>Ag</c><c>   1</c></rc>
    <rc><c>Ag</c><c>   1</c></rc>
    <rc><c>Ag</c><c>   1</c></rc>
    <rc><c>Ag</c><c>   1</c></rc>
    <rc><c>Sb</c><c>   2</c></rc>
    <rc><c>Sb</c><c>   2</c></rc>
    <rc><c>S </c><c>   3</c></rc>
    <rc><c>S </c><c>   3</c></rc>
    <rc><c>S </c><c>   3</c></rc>
    <rc><c>S </c><c>   3</c></rc>
    <rc><c>S </c><c>   3</c></rc>
    <rc><c>S </c><c>   3</c></rc>
   </set>
  </array>
  <array name="atomtypes" >
   <dimension dim="1">type</dimension>
   <field type="int">atomspertype</field>
   <field type="string">element</field>
   <field>mass</field>
   <field>valence</field>
   <field type="string">pseudopotential</field>
   <set>
    <rc><c>   6</c><c>Ag</c><c>    107.86800000</c><c>     11.00000000</c><c>  PAW_PBE Ag 02Apr2005                  </c></rc>
    <rc><c>   2</c><c>Sb</c><c>    121.75000000</c><c>      5.00000000</c><c>  PAW_PBE Sb 06Sep2000                  </c></rc>
    <rc><c>   6</c><c>S </c><c>     32.06600000</c><c>      6.00000000</c><c>  PAW_PBE S 06Sep2000                   </c></rc>
   </set>
  </array>
 </atominfo>
 <structure name="initialpos" >
  <crystal>
   <varray name="basis" >
    <v>       6.82737432       0.18328729      -1.56314035 </v>
    <v>      -1.99978775       6.53050464      -1.56314031 </v>
    <v>       0.13179241       0.18328726       7.00279105 </v>
   </varray>
   <i name="volume">    318.63121791 </i>
   <varray name="rec_basis" >
    <v>       0.14442484       0.04330425      -0.00385150 </v>
    <v>      -0.00492741       0.15069674      -0.00385152 </v>
    <v>       0.03113817       0.04330427       0.14108076 </v>
   </varray>
  </crystal>
  <varray name="positions" >
   <v>       0.41447437       0.73987505       0.95178555 </v>
   <v>       0.95178555       0.41447437       0.73987505 </v>
   <v>       0.91447437       0.45178555       0.23987505 </v>
   <v>       0.45178555       0.23987505       0.91447437 </v>
   <v>       0.73987505       0.95178555       0.41447437 </v>
   <v>       0.23987505       0.91447437       0.45178555 </v>
   <v>       0.50634957       0.50634957       0.50634957 </v>
   <v>       0.00634957       0.00634957       0.00634957 </v>
   <v>       0.09757356       0.76488465       0.75095725 </v>
   <v>       0.76488465       0.75095725       0.09757356 </v>
   <v>       0.26488465       0.59757356       0.25095725 </v>
   <v>       0.59757356       0.25095725       0.26488465 </v>
   <v>       0.75095725       0.09757356       0.76488465 </v>
   <v>       0.25095725       0.26488465       0.59757356 </v>
  </varray>
 </structure>
 <calculation>
  <scstep>
   <time name="dav">    0.54    0.64</time>
   <time name="total">    0.98    1.11</time>
   <energy>
    <i name="alphaZ">    207.75883047 </i>
    <i name="ewald">  -6633.27249502 </i>
    <i name="hartreedc">  -2217.30223567 </i>
    <i name="XCdc">    -83.59729785 </i>
    <i name="pawpsdc">   7653.03662810 </i>
    <i name="pawaedc">  -7249.30541235 </i>
    <i name="eentropy">     -0.01411844 </i>
    <i name="bandstr">    597.56033201 </i>
    <i name="atom">   8183.81410187 </i>
    <i name="e_fr_energy">    458.67833313 </i>
    <i name="e_wo_entrp">    458.69245157 </i>
    <i name="e_0_energy">    458.68539235 </i>
   </energy>
  </scstep>
  <scstep>
   <time name="dav">    0.54    0.54</time>
   <time name="total">    0.54    0.54</time>
   <energy>
    <i name="e_fr_energy">    -23.56750461 </i>
    <i name="e_wo_entrp">    -23.56750461 </i>
    <i name="e_0_energy">    -23.56750461 </i>
   </energy>
  </scstep>
  <scstep>
   <time name="dav">    0.55    0.55</time>
   <time name="total">    0.55    0.55</time>
   <energy>
    <i name="e_fr_energy">    -53.50021095 </i>
    <i name="e_wo_entrp">    -53.50021095 </i>
    <i name="e_0_energy">    -53.50021095 </i>
   </energy>
  </scstep>
  <scstep>
   <time name="dav">    0.55    0.55</time>
   <time name="total">    0.55    0.55</time>
   <energy>
    <i name="e_fr_energy">    -54.19194641 </i>
    <i name="e_wo_entrp">    -54.19194641 </i>
    <i name="e_0_energy">    -54.19194641 </i>
   </energy>
  </scstep>
  <scstep>
   <time name="dav">    0.55    0.55</time>
   <time name="total">    0.59    0.61</time>
   <energy>
    <i name="e_fr_energy">    -54.21253947 </i>
    <i name="e_wo_entrp">    -54.21253947 </i>
    <i name="e_0_energy">    -54.21253947 </i>
   </energy>
  </scstep>
  <scstep>
   <time name="dav">    0.56    0.56</time>
   <time name="total">    1.01    1.01</time>
   <energy>
    <i name="e_fr_energy">    -51.05790411 </i>
    <i name="e_wo_entrp">    -51.05790411 </i>
    <i name="e_0_energy">    -51.05790411 </i>
   </energy>
  </scstep>
  <scstep>
   <time name="dav">    0.52    0.52</time>
   <time name="total">    0.96    0.96</time>
   <energy>
    <i name="e_fr_energy">    -51.16969423 </i>
    <i name="e_wo_entrp">    -51.16969423 </i>
    <i name="e_0_energy">    -51.16969423 </i>
   </energy>
  </scstep>
  <scstep>
   <time name="dav">    0.51    0.51</time>
   <time name="total">    0.95    0.95</time>
   <energy>
    <i name="e_fr_energy">    -51.12228681 </i>
    <i name="e_wo_entrp">    -51.12228681 </i>
    <i name="e_0_energy">    -51.12228681 </i>
   </energy>
  </scstep>
  <scstep>
   <time name="dav">    0.52    0.52</time>
   <time name="total">    0.96    0.96</time>
   <energy>
    <i name="e_fr_energy">    -51.12210290 </i>
    <i name="e_wo_entrp">    -51.12210290 </i>
    <i name="e_0_energy">    -51.12210290 </i>
   </energy>
  </scstep>
  <scstep>
   <time name="dav">    0.55    0.55</time>
   <time name="total">    0.99    0.99</time>
   <energy>
    <i name="e_fr_energy">    -51.12214652 </i>
    <i name="e_wo_entrp">    -51.12214652 </i>
    <i name="e_0_energy">    -51.12214652 </i>
   </energy>
  </scstep>
  <scstep>
   <time name="dav">    0.41    0.41</time>
   <time name="total">    0.85    0.85</time>
   <energy>
    <i name="e_fr_energy">    -51.12233062 </i>
    <i name="e_wo_entrp">    -51.12233062 </i>
    <i name="e_0_energy">    -51.12233062 </i>
   </energy>
  </scstep>
  <scstep>
   <time name="dav">    0.34    0.34</time>
   <time name="total">    0.74    0.74</time>
   <energy>
    <i name="alphaZ">    207.75883047 </i>
    <i name="ewald">  -6633.27249502 </i>
    <i name="hartreedc">  -2179.92485689 </i>
    <i name="XCdc">    -83.17421356 </i>
    <i name="pawpsdc">  11214.97218557 </i>
    <i name="pawaedc"> -10822.61609625 </i>
    <i name="eentropy">     -0.00000000 </i>
    <i name="bandstr">     61.32019644 </i>
    <i name="atom">   8183.81410187 </i>
    <i name="e_fr_energy">    -51.12234736 </i>
    <i name="e_wo_entrp">    -51.12234736 </i>
    <i name="e_0_energy">    -51.12234736 </i>
   </energy>
  </scstep>
  <structure>
   <crystal>
    <varray name="basis" >
     <v>       6.82737432       0.18328729      -1.56314035 </v>
     <v>      -1.99978775       6.53050464      -1.56314031 </v>
     <v>       0.13179241       0.18328726       7.00279105 </v>
    </varray>
    <i name="volume">    318.63121791 </i>
    <varray name="rec_basis" >
     <v>       0.14442484       0.04330425      -0.00385150 </v>
     <v>      -0.00492741       0.15069674      -0.00385152 </v>
     <v>       0.03113817       0.04330427       0.14108076 </v>
    </varray>
   </crystal>
   <varray name="positions" >
    <v>       0.41447437       0.73987505       0.95178555 </v>
    <v>       0.95178555       0.41447437       0.73987505 </v>
    <v>       0.91447437       0.45178555       0.23987505 </v>
    <v>       0.45178555       0.23987505       0.91447437 </v>
    <v>       0.73987505       0.95178555       0.41447437 </v>
    <v>       0.23987505       0.91447437       0.45178555 </v>
    <v>       0.50634957       0.50634957       0.50634957 </v>
    <v>       0.00634957       0.00634957       0.00634957 </v>
    <v>       0.09757356       0.76488465       0.75095725 </v>
    <v>       0.76488465       0.75095725       0.09757356 </v>
    <v>       0.26488465       0.59757356       0.25095725 </v>
    <v>       0.59757356       0.25095725       0.26488465 </v>
    <v>       0.75095725       0.09757356       0.76488465 </v>
    <v>       0.25095725       0.26488465       0.59757356 </v>
   </varray>
  </structure>
  <varray name="forces" >
   <v>      -0.00432527       0.00811589      -0.00891495 </v>
   <v>      -0.00646075      -0.00151649       0.01095496 </v>
   <v>       0.00061923      -0.00660738       0.01095496 </v>
   <v>      -0.00969558       0.00811589      -0.00204449 </v>
   <v>       0.01078028      -0.00660738      -0.00204449 </v>
   <v>       0.00907061      -0.00151649      -0.00891495 </v>
   <v>       0.16282618       0.22644469       0.12727347 </v>
   <v>       0.16282618       0.22644469       0.12727347 </v>
   <v>       0.06555210      -0.11621297      -0.12324682 </v>
   <v>      -0.07713070      -0.13536806       0.09337378 </v>
   <v>      -0.13103543       0.02514432      -0.12324682 </v>
   <v>       0.07198493      -0.13536806      -0.09739594 </v>
   <v>      -0.15124184       0.02514432      -0.09739594 </v>
   <v>      -0.10376995      -0.11621297       0.09337378 </v>
  </varray>
  <varray name="stress" >
   <v>      -2.45818888      -0.56050709      -0.31503298 </v>
   <v>      -0.56050709      -2.83465929      -0.43812137 </v>
   <v>      -0.31503298      -0.43812137      -2.30140072 </v>
  </varray>
  <energy>
   <i name="e_fr_energy">    -51.12234736 </i>
   <i name="e_wo_entrp">    -51.12234736 </i>
   <i name="e_0_energy">     -0.00000000 </i>
  </energy>
  <time name="totalsc">   11.00   11.17</time>
  <eigenvalues>
   <array>
    <dimension dim="1">band</dimension>
    <dimension dim="2">kpoint</dimension>
    <dimension dim="3">spin</dimension>
    <field>eigene</field>
    <field>occ</field>
    <set>
     <set comment="spin 1">
      <set comment="kpoint 1">
       <r>   -8.8405    1.0000 </r>
       <r>   -8.3849    1.0000 </r>
       <r>   -7.5865    1.0000 </r>
       <r>   -7.5865    1.0000 </r>
       <r>   -7.4159    1.0000 </r>
       <r>   -7.4159    1.0000 </r>
       <r>   -3.9135    1.0000 </r>
       <r>   -3.6444    1.0000 </r>
       <r>   -0.3975    1.0000 </r>
       <r>   -0.3975    1.0000 </r>
       <r>   -0.0357    1.0000 </r>
       <r>   -0.0357    1.0000 </r>
       <r>   -0.0166    1.0000 </r>
       <r>    0.1001    1.0000 </r>
       <r>    0.1001    1.0000 </r>
       <r>    0.2002    1.0000 </r>
       <r>    0.2474    1.0000 </r>
       <r>    0.5749    1.0000 </r>
       <r>    0.5749    1.0000 </r>
       <r>    0.6896    1.0000 </r>
       <r>    1.1360    1.0000 </r>
       <r>    1.1360    1.0000 </r>
       <r>    1.2843    1.0000 </r>
       <r>    1.3538    1.0000 </r>
       <r>    1.3538    1.0000 </r>
       <r>    1.4324    1.0000 </r>
       <r>    1.4324    1.0000 </r>
       <r>    1.4353    1.0000 </r>
       <r>    1.5311    1.0000 </r>
       <r>    1.5944    1.0000 </r>
       <r>    1.5944    1.0000 </r>
       <r>    1.6571    1.0000 </r>
       <r>    1.6571    1.0000 </r>
       <r>    1.7076    1.0000 </r>
       <r>    1.7260    1.0000 </r>
       <r>    1.7910    1.0000 </r>
       <r>    1.7910    1.0000 </r>
       <r>    1.8912    1.0000 </r>
       <r>    2.0390    1.0000 </r>
       <r>    2.0390    1.0000 </r>
       <r>    2.2889    1.0000 </r>
       <r>    2.3957    1.0000 </r>
       <r>    2.3957    1.0000 </r>
       <r>    2.5727    1.0000 </r>
       <r>    2.5727    1.0000 </r>
       <r>    2.7313    1.0000 </r>
       <r>    2.9169    1.0000 </r>
       <r>    2.9169    1.0000 </r>
       <r>    3.1415    1.0000 </r>
       <r>    3.2022    1.0000 </r>
       <r>    3.6878    1.0000 </r>
       <r>    3.6878    1.0000 </r>
       <r>    3.9441    1.0000 </r>
       <r>    4.1497    1.0000 </r>
       <r>    4.1497    1.0000 </r>
       <r>    5.3825    1.0000 </r>
       <r>    6.8359    0.0000 </r>
       <r>    6.8359    0.0000 </r>
       <r>    7.4356    0.0000 </r>
       <r>    7.4356    0.0000 </r>
       <r>    7.5344    0.0000 </r>
       <r>    7.5846    0.0000 </r>
       <r>    7.9778    0.0000 </r>
       <r>    9.2850    0.0000 </r>
       <r>    9.2850    0.0000 </r>
       <r>    9.7439    0.0000 </r>
       <r>   10.0464    0.0000 </r>
       <r>   10.0504    0.0000 </r>
      </set>
      <set comment="kpoint 2">
       <r>   -8.5692    1.0000 </r>
       <r>   -8.5692    1.0000 </r>
       <r>   -7.6379    1.0000 </r>
       <r>   -7.6379    1.0000 </r>
       <r>   -7.4584    1.0000 </r>
       <r>   -7.4584    1.0000 </r>
       <r>   -3.7046    1.0000 </r>
       <r>   -3.7046    1.0000 </r>
       <r>   -0.4098    1.0000 </r>
       <r>   -0.4098    1.0000 </r>
       <r>   -0.2215    1.0000 </r>
       <r>   -0.2215    1.0000 </r>
       <r>    0.1442    1.0000 </r>
       <r>    0.1442    1.0000 </r>
       <r>    0.3658    1.0000 </r>
       <r>    0.3658    1.0000 </r>
       <r>    0.5149    1.0000 </r>
       <r>    0.5149    1.0000 </r>
       <r>    0.8096    1.0000 </r>
       <r>    0.8096    1.0000 </r>
       <r>    1.0080    1.0000 </r>
       <r>    1.0080    1.0000 </r>
       <r>    1.2150    1.0000 </r>
       <r>    1.2150    1.0000 </r>
       <r>    1.2928    1.0000 </r>
       <r>    1.2928    1.0000 </r>
       <r>    1.4167    1.0000 </r>
       <r>    1.4167    1.0000 </r>
       <r>    1.5231    1.0000 </r>
       <r>    1.5231    1.0000 </r>
       <r>    1.6308    1.0000 </r>
       <r>    1.6308    1.0000 </r>
       <r>    1.6961    1.0000 </r>
       <r>    1.6961    1.0000 </r>
       <r>    1.7350    1.0000 </r>
       <r>    1.7350    1.0000 </r>
       <r>    1.8207    1.0000 </r>
       <r>    1.8207    1.0000 </r>
       <r>    2.0047    1.0000 </r>
       <r>    2.0047    1.0000 </r>
       <r>    2.1079    1.0000 </r>
       <r>    2.1079    1.0000 </r>
       <r>    2.3625    1.0000 </r>
       <r>    2.3625    1.0000 </r>
       <r>    2.5227    1.0000 </r>
       <r>    2.5227    1.0000 </r>
       <r>    2.9895    1.0000 </r>
       <r>    2.9895    1.0000 </r>
       <r>    3.5802    1.0000 </r>
       <r>    3.5802    1.0000 </r>
       <r>    3.6674    1.0000 </r>
       <r>    3.6674    1.0000 </r>
       <r>    4.3886    1.0000 </r>
       <r>    4.3886    1.0000 </r>
       <r>    4.4994    1.0000 </r>
       <r>    4.4994    1.0000 </r>
       <r>    6.7645    0.0000 </r>
       <r>    6.7645    0.0000 </r>
       <r>    7.5334    0.0000 </r>
       <r>    7.5334    0.0000 </r>
       <r>    7.6980    0.0000 </r>
       <r>    7.6980    0.0000 </r>
       <r>    8.5541    0.0000 </r>
       <r>    8.5541    0.0000 </r>
       <r>    9.2929    0.0000 </r>
       <r>    9.2929    0.0000 </r>
       <r>    9.4316    0.0000 </r>
       <r>    9.4316    0.0000 </r>
      </set>
      <set comment="kpoint 3">
       <r>   -8.4873    1.0000 </r>
       <r>   -8.4678    1.0000 </r>
       <r>   -7.8469    1.0000 </r>
       <r>   -7.6031    1.0000 </r>
       <r>   -7.5559    1.0000 </r>
       <r>   -7.4581    1.0000 </r>
       <r>   -3.6835    1.0000 </r>
       <r>   -3.5799    1.0000 </r>
       <r>   -0.5270    1.0000 </r>
       <r>   -0.3896    1.0000 </r>
       <r>   -0.3440    1.0000 </r>
       <r>   -0.2784    1.0000 </r>
       <r>    0.0908    1.0000 </r>
       <r>    0.2040    1.0000 </r>
       <r>    0.3218    1.0000 </r>
       <r>    0.4613    1.0000 </r>
       <r>    0.6112    1.0000 </r>
       <r>    0.6322    1.0000 </r>
       <r>    0.6715    1.0000 </r>
       <r>    0.8065    1.0000 </r>
       <r>    0.9954    1.0000 </r>
       <r>    1.0086    1.0000 </r>
       <r>    1.1717    1.0000 </r>
       <r>    1.2433    1.0000 </r>
       <r>    1.2920    1.0000 </r>
       <r>    1.3264    1.0000 </r>
       <r>    1.4084    1.0000 </r>
       <r>    1.4323    1.0000 </r>
       <r>    1.4674    1.0000 </r>
       <r>    1.5908    1.0000 </r>
       <r>    1.6072    1.0000 </r>
       <r>    1.6443    1.0000 </r>
       <r>    1.6596    1.0000 </r>
       <r>    1.7082    1.0000 </r>
       <r>    1.7241    1.0000 </r>
       <r>    1.7777    1.0000 </r>
       <r>    1.7863    1.0000 </r>
       <r>    1.8849    1.0000 </r>
       <r>    1.8911    1.0000 </r>
       <r>    1.9470    1.0000 </r>
       <r>    2.2042    1.0000 </r>
       <r>    2.2272    1.0000 </r>
       <r>    2.2844    1.0000 </r>
       <r>    2.7345    1.0000 </r>
       <r>    2.7755    1.0000 </r>
       <r>    2.7797    1.0000 </r>
       <r>    2.9623    1.0000 </r>
       <r>    3.1600    1.0000 </r>
       <r>    3.2851    1.0000 </r>
       <r>    3.4136    1.0000 </r>
       <r>    3.5537    1.0000 </r>
       <r>    3.7365    1.0000 </r>
       <r>    4.1751    1.0000 </r>
       <r>    4.3042    1.0000 </r>
       <r>    4.3491    1.0000 </r>
       <r>    4.6011    1.0000 </r>
       <r>    6.2252    0.0000 </r>
       <r>    6.8097    0.0000 </r>
       <r>    7.3589    0.0000 </r>
       <r>    7.5065    0.0000 </r>
       <r>    7.6780    0.0000 </r>
       <r>    7.8006    0.0000 </r>
       <r>    8.6866    0.0000 </r>
       <r>    8.8627    0.0000 </r>
       <r>    8.9850    0.0000 </r>
       <r>    9.2938    0.0000 </r>
       <r>    9.6337    0.0000 </r>
       <r>    9.7531    0.0000 </r>
      </set>
      <set comment="kpoint 4">
       <r>   -8.3961    1.0000 </r>
       <r>   -8.3961    1.0000 </r>
       <r>   -7.6801    1.0000 </r>
       <r>   -7.6801    1.0000 </r>
       <r>   -7.6801    1.0000 </r>
       <r>   -7.6801    1.0000 </r>
       <r>   -3.5447    1.0000 </r>
       <r>   -3.5447    1.0000 </r>
       <r>   -0.3354    1.0000 </r>
       <r>   -0.3354    1.0000 </r>
       <r>   -0.3354    1.0000 </r>
       <r>   -0.3354    1.0000 </r>
       <r>   -0.1220    1.0000 </r>
       <r>   -0.1220    1.0000 </r>
       <r>    0.3847    1.0000 </r>
       <r>    0.3847    1.0000 </r>
       <r>    0.3847    1.0000 </r>
       <r>    0.3847    1.0000 </r>
       <r>    1.0214    1.0000 </r>
       <r>    1.0214    1.0000 </r>
       <r>    1.0214    1.0000 </r>
       <r>    1.0214    1.0000 </r>
       <r>    1.2742    1.0000 </r>
       <r>    1.2742    1.0000 </r>
       <r>    1.3098    1.0000 </r>
       <r>    1.3098    1.0000 </r>
       <r>    1.5261    1.0000 </r>
       <r>    1.5261    1.0000 </r>
       <r>    1.5269    1.0000 </r>
       <r>    1.5269    1.0000 </r>
       <r>    1.5269    1.0000 </r>
       <r>    1.5269    1.0000 </r>
       <r>    1.6317    1.0000 </r>
       <r>    1.6317    1.0000 </r>
       <r>    1.7660    1.0000 </r>
       <r>    1.7660    1.0000 </r>
       <r>    1.7660    1.0000 </r>
       <r>    1.7660    1.0000 </r>
       <r>    1.9326    1.0000 </r>
       <r>    1.9326    1.0000 </r>
       <r>    2.2644    1.0000 </r>
       <r>    2.2644    1.0000 </r>
       <r>    2.2644    1.0000 </r>
       <r>    2.2644    1.0000 </r>
       <r>    3.1768    1.0000 </r>
       <r>    3.1768    1.0000 </r>
       <r>    3.1768    1.0000 </r>
       <r>    3.1768    1.0000 </r>
       <r>    3.4310    1.0000 </r>
       <r>    3.4310    1.0000 </r>
       <r>    4.0399    1.0000 </r>
       <r>    4.0399    1.0000 </r>
       <r>    4.0399    1.0000 </r>
       <r>    4.0399    1.0000 </r>
       <r>    4.0822    1.0000 </r>
       <r>    4.0822    1.0000 </r>
       <r>    7.1605    0.0000 </r>
       <r>    7.1605    0.0000 </r>
       <r>    7.1605    0.0000 </r>
       <r>    7.1605    0.0000 </r>
       <r>    7.7739    0.0000 </r>
       <r>    7.7739    0.0000 </r>
       <r>    8.5419    0.0000 </r>
       <r>    8.5419    0.0000 </r>
       <r>    8.5419    0.0000 </r>
       <r>    8.5419    0.0000 </r>
       <r>    8.9130    0.0000 </r>
       <r>    8.9130    0.0000 </r>
      </set>
     </set>
    </set>
   </array>
  </eigenvalues>
  <separator name="orbital magnetization" >
   <v name="MAGDIPOLOUT">      0.00000000      0.00000000      0.00000000</v>
  </separator>
  <dos>
   <i name="efermi">      5.66360985 </i>
   <total>
    <array>
     <dimension dim="1">gridpoints</dimension>
     <dimension dim="2">spin</dimension>
     <field>energy</field>
     <field>total</field>
     <field>integrated</field>
     <set>
      <set comment="spin 1">
       <r>    -9.7851     0.0000     0.0000 </r>
       <r>    -9.7158     0.0000     0.0000 </r>
       <r>    -9.6465     0.0000     0.0000 </r>
       <r>    -9.5773     0.0000     0.0000 </r>
       <r>    -9.5080     0.0000     0.0000 </r>
       <r>    -9.4387     0.0000     0.0000 </r>
       <r>    -9.3695     0.0000     0.0000 </r>
       <r>    -9.3002     0.0000     0.0000 </r>
       <r>    -9.2309     0.0000     0.0000 </r>
       <r>    -9.1617     0.0000     0.0000 </r>
       <r>    -9.0924     0.0000     0.0000 </r>
       <r>    -9.0231     0.0000     0.0000 </r>
       <r>    -8.9539     0.0024     0.0002 </r>
       <r>    -8.8846     0.3810     0.0266 </r>
       <r>    -8.8153     2.3664     0.1905 </r>
       <r>    -8.7461     0.8457     0.2491 </r>
       <r>    -8.6768     0.0388     0.2517 </r>
       <r>    -8.6075     2.9864     0.4586 </r>
       <r>    -8.5383    15.5672     1.5369 </r>
       <r>    -8.4690    16.0305     2.6473 </r>
       <r>    -8.3997    12.8717     3.5389 </r>
       <r>    -8.3305     6.2054     3.9687 </r>
       <r>    -8.2612     0.4507     3.9999 </r>
       <r>    -8.1919     0.0013     4.0000 </r>
       <r>    -8.1227     0.0000     4.0000 </r>
       <r>    -8.0534     0.0000     4.0000 </r>
       <r>    -7.9841     0.0006     4.0000 </r>
       <r>    -7.9149     0.2958     4.0205 </r>
       <r>    -7.8456     5.2829     4.3865 </r>
       <r>    -7.7763     5.0486     4.7362 </r>
       <r>    -7.7071     3.9873     5.0123 </r>
       <r>    -7.6378    22.2334     6.5524 </r>
       <r>    -7.5685    27.5081     8.4578 </r>
       <r>    -7.4993    14.8419     9.4858 </r>
       <r>    -7.4300    24.6786    11.1953 </r>
       <r>    -7.3607    11.0947    11.9637 </r>
       <r>    -7.2915     0.5218    11.9999 </r>
       <r>    -7.2222     0.0016    12.0000 </r>
       <r>    -7.1529     0.0000    12.0000 </r>
       <r>    -7.0837     0.0000    12.0000 </r>
       <r>    -7.0144     0.0000    12.0000 </r>
       <r>    -6.9451     0.0000    12.0000 </r>
       <r>    -6.8759     0.0000    12.0000 </r>
       <r>    -6.8066     0.0000    12.0000 </r>
       <r>    -6.7373     0.0000    12.0000 </r>
       <r>    -6.6681     0.0000    12.0000 </r>
       <r>    -6.5988     0.0000    12.0000 </r>
       <r>    -6.5295     0.0000    12.0000 </r>
       <r>    -6.4603     0.0000    12.0000 </r>
       <r>    -6.3910     0.0000    12.0000 </r>
       <r>    -6.3217     0.0000    12.0000 </r>
       <r>    -6.2525     0.0000    12.0000 </r>
       <r>    -6.1832     0.0000    12.0000 </r>
       <r>    -6.1139     0.0000    12.0000 </r>
       <r>    -6.0447     0.0000    12.0000 </r>
       <r>    -5.9754     0.0000    12.0000 </r>
       <r>    -5.9061     0.0000    12.0000 </r>
       <r>    -5.8369     0.0000    12.0000 </r>
       <r>    -5.7676     0.0000    12.0000 </r>
       <r>    -5.6983     0.0000    12.0000 </r>
       <r>    -5.6291     0.0000    12.0000 </r>
       <r>    -5.5598     0.0000    12.0000 </r>
       <r>    -5.4905     0.0000    12.0000 </r>
       <r>    -5.4213     0.0000    12.0000 </r>
       <r>    -5.3520     0.0000    12.0000 </r>
       <r>    -5.2827     0.0000    12.0000 </r>
       <r>    -5.2135     0.0000    12.0000 </r>
       <r>    -5.1442     0.0000    12.0000 </r>
       <r>    -5.0749     0.0000    12.0000 </r>
       <r>    -5.0057     0.0000    12.0000 </r>
       <r>    -4.9364     0.0000    12.0000 </r>
       <r>    -4.8671     0.0000    12.0000 </r>
       <r>    -4.7978     0.0000    12.0000 </r>
       <r>    -4.7286     0.0000    12.0000 </r>
       <r>    -4.6593     0.0000    12.0000 </r>
       <r>    -4.5900     0.0000    12.0000 </r>
       <r>    -4.5208     0.0000    12.0000 </r>
       <r>    -4.4515     0.0000    12.0000 </r>
       <r>    -4.3822     0.0000    12.0000 </r>
       <r>    -4.3130     0.0000    12.0000 </r>
       <r>    -4.2437     0.0000    12.0000 </r>
       <r>    -4.1744     0.0000    12.0000 </r>
       <r>    -4.1052     0.0000    12.0000 </r>
       <r>    -4.0359     0.0010    12.0001 </r>
       <r>    -3.9666     0.2385    12.0166 </r>
       <r>    -3.8974     2.1992    12.1689 </r>
       <r>    -3.8281     1.1476    12.2484 </r>
       <r>    -3.7588     1.5578    12.3563 </r>
       <r>    -3.6896    17.9063    13.5966 </r>
       <r>    -3.6203    16.6582    14.7505 </r>
       <r>    -3.5510    11.6577    15.5580 </r>
       <r>    -3.4818     6.0809    15.9792 </r>
       <r>    -3.4125     0.2997    16.0000 </r>
       <r>    -3.3432     0.0007    16.0000 </r>
       <r>    -3.2740     0.0000    16.0000 </r>
       <r>    -3.2047     0.0000    16.0000 </r>
       <r>    -3.1354     0.0000    16.0000 </r>
       <r>    -3.0662     0.0000    16.0000 </r>
       <r>    -2.9969     0.0000    16.0000 </r>
       <r>    -2.9276     0.0000    16.0000 </r>
       <r>    -2.8584     0.0000    16.0000 </r>
       <r>    -2.7891     0.0000    16.0000 </r>
       <r>    -2.7198     0.0000    16.0000 </r>
       <r>    -2.6506     0.0000    16.0000 </r>
       <r>    -2.5813     0.0000    16.0000 </r>
       <r>    -2.5120     0.0000    16.0000 </r>
       <r>    -2.4428     0.0000    16.0000 </r>
       <r>    -2.3735     0.0000    16.0000 </r>
       <r>    -2.3042     0.0000    16.0000 </r>
       <r>    -2.2350     0.0000    16.0000 </r>
       <r>    -2.1657     0.0000    16.0000 </r>
       <r>    -2.0964     0.0000    16.0000 </r>
       <r>    -2.0272     0.0000    16.0000 </r>
       <r>    -1.9579     0.0000    16.0000 </r>
       <r>    -1.8886     0.0000    16.0000 </r>
       <r>    -1.8194     0.0000    16.0000 </r>
       <r>    -1.7501     0.0000    16.0000 </r>
       <r>    -1.6808     0.0000    16.0000 </r>
       <r>    -1.6116     0.0000    16.0000 </r>
       <r>    -1.5423     0.0000    16.0000 </r>
       <r>    -1.4730     0.0000    16.0000 </r>
       <r>    -1.4038     0.0000    16.0000 </r>
       <r>    -1.3345     0.0000    16.0000 </r>
       <r>    -1.2652     0.0000    16.0000 </r>
       <r>    -1.1960     0.0000    16.0000 </r>
       <r>    -1.1267     0.0000    16.0000 </r>
       <r>    -1.0574     0.0000    16.0000 </r>
       <r>    -0.9882     0.0000    16.0000 </r>
       <r>    -0.9189     0.0000    16.0000 </r>
       <r>    -0.8496     0.0000    16.0000 </r>
       <r>    -0.7804     0.0000    16.0000 </r>
       <r>    -0.7111     0.0000    16.0000 </r>
       <r>    -0.6418     0.0063    16.0004 </r>
       <r>    -0.5726     1.0610    16.0739 </r>
       <r>    -0.5033     7.1412    16.5686 </r>
       <r>    -0.4340    10.2192    17.2764 </r>
       <r>    -0.3648    32.0414    19.4958 </r>
       <r>    -0.2955    26.2630    21.3150 </r>
       <r>    -0.2262    18.7960    22.6169 </r>
       <r>    -0.1570    13.1773    23.5297 </r>
       <r>    -0.0877     6.1822    23.9579 </r>
       <r>    -0.0184     7.3045    24.4639 </r>
       <r>     0.0508     6.0578    24.8835 </r>
       <r>     0.1201    17.3624    26.0861 </r>
       <r>     0.1894    23.3893    27.7062 </r>
       <r>     0.2586    13.2877    28.6266 </r>
       <r>     0.3279    11.7376    29.4396 </r>
       <r>     0.3972    27.8772    31.3706 </r>
       <r>     0.4664    16.7815    32.5330 </r>
       <r>     0.5357    19.7416    33.9004 </r>
       <r>     0.6050    18.1110    35.1549 </r>
       <r>     0.6742    21.0655    36.6141 </r>
       <r>     0.7435     9.7853    37.2919 </r>
       <r>     0.8128    17.1618    38.4806 </r>
       <r>     0.8820    14.1145    39.4583 </r>
       <r>     0.9513     3.8401    39.7243 </r>
       <r>     1.0206    32.7841    41.9951 </r>
       <r>     1.0898    21.7721    43.5032 </r>
       <r>     1.1591    10.5575    44.2345 </r>
       <r>     1.2284    26.6293    46.0790 </r>
       <r>     1.2976    43.5539    49.0958 </r>
       <r>     1.3669    37.0767    51.6640 </r>
       <r>     1.4362    38.9505    54.3620 </r>
       <r>     1.5054    38.7534    57.0463 </r>
       <r>     1.5747    41.1326    59.8955 </r>
       <r>     1.6440    52.5806    63.5376 </r>
       <r>     1.7132    62.4600    67.8640 </r>
       <r>     1.7825    61.7230    72.1393 </r>
       <r>     1.8518    40.1475    74.9202 </r>
       <r>     1.9210    27.2310    76.8064 </r>
       <r>     1.9903    23.6380    78.4438 </r>
       <r>     2.0596    20.9865    79.8974 </r>
       <r>     2.1288    17.3095    81.0964 </r>
       <r>     2.1981    13.1416    82.0067 </r>
       <r>     2.2674    24.7183    83.7188 </r>
       <r>     2.3366    22.4853    85.2763 </r>
       <r>     2.4059    19.7251    86.6426 </r>
       <r>     2.4752     7.0101    87.1282 </r>
       <r>     2.5444    15.4976    88.2016 </r>
       <r>     2.6137    10.5337    88.9313 </r>
       <r>     2.6830     2.1628    89.0811 </r>
       <r>     2.7522    14.0676    90.0555 </r>
       <r>     2.8215    18.4561    91.3339 </r>
       <r>     2.8908     4.3326    91.6340 </r>
       <r>     2.9600    14.0135    92.6047 </r>
       <r>     3.0293    20.6270    94.0334 </r>
       <r>     3.0986     4.1570    94.3214 </r>
       <r>     3.1678    14.5075    95.3263 </r>
       <r>     3.2371    16.5040    96.4695 </r>
       <r>     3.3064     8.3132    97.0453 </r>
       <r>     3.3756     4.8502    97.3812 </r>
       <r>     3.4449    11.6164    98.1859 </r>
       <r>     3.5142     6.5393    98.6388 </r>
       <r>     3.5834    18.4798    99.9189 </r>
       <r>     3.6527    20.1352   101.3136 </r>
       <r>     3.7220    21.8908   102.8299 </r>
       <r>     3.7912     8.9977   103.4531 </r>
       <r>     3.8605     0.7070   103.5021 </r>
       <r>     3.9298     1.2194   103.5865 </r>
       <r>     3.9990     4.0005   103.8637 </r>
       <r>     4.0683    12.3525   104.7193 </r>
       <r>     4.1376    11.4007   105.5090 </r>
       <r>     4.2068    11.9549   106.3370 </r>
       <r>     4.2761     4.8672   106.6742 </r>
       <r>     4.3454    14.3502   107.6682 </r>
       <r>     4.4146    21.2819   109.1423 </r>
       <r>     4.4839    12.2585   109.9914 </r>
       <r>     4.5532    14.1219   110.9696 </r>
       <r>     4.6224     8.3026   111.5447 </r>
       <r>     4.6917     2.9078   111.7461 </r>
       <r>     4.7610     0.0563   111.7500 </r>
       <r>     4.8302     0.0000   111.7500 </r>
       <r>     4.8995     0.0000   111.7500 </r>
       <r>     4.9688     0.0000   111.7500 </r>
       <r>     5.0380     0.0000   111.7500 </r>
       <r>     5.1073     0.0000   111.7500 </r>
       <r>     5.1766     0.0000   111.7500 </r>
       <r>     5.2458     0.0002   111.7500 </r>
       <r>     5.3151     0.1019   111.7571 </r>
       <r>     5.3844     1.7783   111.8803 </r>
       <r>     5.4536     1.6489   111.9945 </r>
       <r>     5.5229     0.0797   112.0000 </r>
       <r>     5.5922     0.0001   112.0000 </r>
       <r>     5.6614     0.0000   112.0000 </r>
       <r>     5.7307     0.0000   112.0000 </r>
       <r>     5.8000     0.0000   112.0000 </r>
       <r>     5.8692     0.0000   112.0000 </r>
       <r>     5.9385     0.0000   112.0000 </r>
       <r>     6.0078     0.0000   112.0000 </r>
       <r>     6.0770     0.0002   112.0000 </r>
       <r>     6.1463     0.1391   112.0096 </r>
       <r>     6.2156     4.1168   112.2948 </r>
       <r>     6.2848     6.0766   112.7157 </r>
       <r>     6.3541     0.4936   112.7499 </r>
       <r>     6.4234     0.0014   112.7500 </r>
       <r>     6.4926     0.0000   112.7500 </r>
       <r>     6.5619     0.0000   112.7500 </r>
       <r>     6.6312     0.0018   112.7501 </r>
       <r>     6.7004     0.7674   112.8033 </r>
       <r>     6.7697    12.9447   113.6999 </r>
       <r>     6.8390    20.0421   115.0882 </r>
       <r>     6.9082     5.7692   115.4878 </r>
       <r>     6.9775     0.1762   115.5000 </r>
       <r>     7.0468     0.0096   115.5007 </r>
       <r>     7.1160     1.5001   115.6046 </r>
       <r>     7.1853     9.4485   116.2590 </r>
       <r>     7.2546     3.4401   116.4973 </r>
       <r>     7.3238     1.7839   116.6209 </r>
       <r>     7.3931     8.1158   117.1830 </r>
       <r>     7.4624     8.2546   117.7548 </r>
       <r>     7.5317    20.4825   119.1736 </r>
       <r>     7.6009    17.4512   120.3824 </r>
       <r>     7.6702    10.8233   121.1321 </r>
       <r>     7.7395    21.9474   122.6523 </r>
       <r>     7.8087    13.8391   123.6109 </r>
       <r>     7.8780     5.4603   123.9891 </r>
       <r>     7.9473     0.8580   124.0485 </r>
       <r>     8.0165     2.4162   124.2159 </r>
       <r>     8.0858     0.4884   124.2497 </r>
       <r>     8.1551     0.0041   124.2500 </r>
       <r>     8.2243     0.0000   124.2500 </r>
       <r>     8.2936     0.0000   124.2500 </r>
       <r>     8.3629     0.0000   124.2500 </r>
       <r>     8.4321     0.0198   124.2514 </r>
       <r>     8.5014     3.2734   124.4781 </r>
       <r>     8.5707    22.8798   126.0629 </r>
       <r>     8.6399    10.7262   126.8059 </r>
       <r>     8.7092     7.1911   127.3040 </r>
       <r>     8.7785     2.8723   127.5030 </r>
       <r>     8.8477     3.8276   127.7681 </r>
       <r>     8.9170    10.5099   128.4961 </r>
       <r>     8.9863     9.0915   129.1258 </r>
       <r>     9.0555     5.1523   129.4827 </r>
       <r>     9.1248     0.2494   129.5000 </r>
       <r>     9.1941     0.1187   129.5082 </r>
       <r>     9.2633     8.2912   130.0825 </r>
       <r>     9.3326    26.3917   131.9106 </r>
       <r>     9.4019     9.1875   132.5470 </r>
       <r>     9.4711    14.5077   133.5519 </r>
       <r>     9.5404     2.8829   133.7515 </r>
       <r>     9.6097     2.6677   133.9363 </r>
       <r>     9.6789     7.3640   134.4464 </r>
       <r>     9.7482     7.5553   134.9697 </r>
       <r>     9.8175     7.2144   135.4695 </r>
       <r>     9.8867     0.4400   135.4999 </r>
       <r>     9.9560     0.0336   135.5023 </r>
       <r>    10.0253     1.8184   135.6282 </r>
       <r>    10.0945     4.6706   135.9517 </r>
       <r>    10.1638     0.6927   135.9997 </r>
       <r>    10.2331     0.0041   136.0000 </r>
       <r>    10.3023     0.0000   136.0000 </r>
       <r>    10.3716     0.0000   136.0000 </r>
       <r>    10.4409     0.0000   136.0000 </r>
       <r>    10.5101     0.0000   136.0000 </r>
       <r>    10.5794     0.0000   136.0000 </r>
       <r>    10.6487     0.0000   136.0000 </r>
       <r>    10.7179     0.0000   136.0000 </r>
       <r>    10.7872     0.0000   136.0000 </r>
       <r>    10.8565     0.0000   136.0000 </r>
       <r>    10.9257     0.0000   136.0000 </r>
       <r>    10.9950     0.0000   136.0000 </r>
      </set>
     </set>
    </array>
   </total>
   <partial>
    <array>
     <dimension dim="1">gridpoints</dimension>
     <dimension dim="2">spin</dimension>
     <dimension dim="3">ion</dimension>
     <field>energy</field>
     <field>    s</field>
     <field>   py</field>
     <field>   pz</field>
     <field>   px</field>
     <field>  dxy</field>
     <field>  dyz</field>
     <field>  dz2</field>
     <field>  dxz</field>
     <field>x2-y2</field>
     <set>
      <set comment="ion 1">
       <set comment="spin 1">
        <r>    -9.7851     0.0000     0.0000     0.0000     0.0000     0.0000     0.0000     0.0000     0.0000     0.0000 </r>
        <r>    -9.7158     0.0000     0.0000     0.0000     0.0000     0.0000     0.0000     0.0000     0.0000     0.0000 </r>
        <r>    -9.6465     0.0000     0.0000     0.0000     0.0000     0.0000     0.0000     0.0000     0.0000     0.0000 </r>
        <r>    -9.5773     0.0000     0.0000     0.0000     0.0000     0.0000     0.0000     0.0000     0.0000     0.0000 </r>
        <r>    -9.5080     0.0000     0.0000     0.0000     0.0000     0.0000     0.0000     0.0000     0.0000     0.0000 </r>
        <r>    -9.4387     0.0000     0.0000     0.0000     0.0000     0.0000     0.0000     0.0000     0.0000     0.0000 </r>
        <r>    -9.3695     0.0000     0.0000     0.0000     0.0000     0.0000     0.0000     0.0000     0.0000     0.0000 </r>
        <r>    -9.3002     0.0000     0.0000     0.0000     0.0000     0.0000     0.0000     0.0000     0.0000     0.0000 </r>
        <r>    -9.2309     0.0000     0.0000     0.0000     0.0000     0.0000     0.0000     0.0000     0.0000     0.0000 </r>
        <r>    -9.1617     0.0000     0.0000     0.0000     0.0000     0.0000     0.0000     0.0000     0.0000     0.0000 </r>
        <r>    -9.0924     0.0000     0.0000     0.0000     0.0000     0.0000     0.0000     0.0000     0.0000     0.0000 </r>
        <r>    -9.0231     0.0000     0.0000     0.0000     0.0000     0.0000     0.0000     0.0000     0.0000     0.0000 </r>
        <r>    -8.9539     0.0000     0.0000     0.0000     0.0000     0.0000     0.0000     0.0000     0.0000     0.0000 </r>
        <r>    -8.8846     0.0019     0.0000     0.0000     0.0000     0.0000     0.0000     0.0001     0.0002     0.0007 </r>
        <r>    -8.8153     0.0120     0.0000     0.0000     0.0000     0.0001     0.0000     0.0004     0.0010     0.0044 </r>
        <r>    -8.7461     0.0043     0.0000     0.0000     0.0000     0.0000     0.0000     0.0002     0.0004     0.0016 </r>
        <r>    -8.6768     0.0001     0.0000     0.0000     0.0001     0.0000     0.0000     0.0000     0.0000     0.0000 </r>
        <r>    -8.6075     0.0026     0.0001     0.0004     0.0064     0.0002     0.0000     0.0001     0.0002     0.0001 </r>
        <r>    -8.5383     0.0130     0.0006     0.0019     0.0336     0.0011     0.0000     0.0008     0.0010     0.0004 </r>
        <r>    -8.4690     0.0079     0.0011     0.0022     0.0353     0.0015     0.0001     0.0014     0.0009     0.0005 </r>
        <r>    -8.3997     0.0043     0.0010     0.0020     0.0265     0.0011     0.0005     0.0029     0.0019     0.0040 </r>
        <r>    -8.3305     0.0030     0.0003     0.0015     0.0095     0.0004     0.0006     0.0031     0.0026     0.0069 </r>
        <r>    -8.2612     0.0003     0.0000     0.0001     0.0005     0.0000     0.0000     0.0003     0.0002     0.0007 </r>
        <r>    -8.1919     0.0000     0.0000     0.0000     0.0000     0.0000     0.0000     0.0000     0.0000     0.0000 </r>
        <r>    -8.1227     0.0000     0.0000     0.0000     0.0000     0.0000     0.0000     0.0000     0.0000     0.0000 </r>
        <r>    -8.0534     0.0000     0.0000     0.0000     0.0000     0.0000     0.0000     0.0000     0.0000     0.0000 </r>
        <r>    -7.9841     0.0000     0.0000     0.0000     0.0000     0.0000     0.0000     0.0000     0.0000     0.0000 </r>
        <r>    -7.9149     0.0019     0.0000     0.0000     0.0003     0.0000     0.0000     0.0000     0.0002     0.0008 </r>
        <r>    -7.8456     0.0342     0.0000     0.0000     0.0059     0.0001     0.0006     0.0001     0.0044     0.0135 </r>
        <r>    -7.7763     0.0325     0.0000     0.0000     0.0057     0.0001     0.0006     0.0002     0.0043     0.0130 </r>
        <r>    -7.7071     0.0163     0.0002     0.0010     0.0028     0.0001     0.0002     0.0034     0.0054     0.0138 </r>
        <r>    -7.6378     0.1046     0.0015     0.0071     0.0093     0.0007     0.0019     0.0302     0.0425     0.1040 </r>
        <r>    -7.5685     0.1134     0.0015     0.0122     0.0169     0.0008     0.0031     0.0425     0.0559     0.1312 </r>
        <r>    -7.4993     0.0315     0.0004     0.0049     0.0181     0.0004     0.0012     0.0100     0.0131     0.0428 </r>
        <r>    -7.4300     0.0085     0.0002     0.0080     0.0426     0.0007     0.0025     0.0057     0.0036     0.0065 </r>
        <r>    -7.3607     0.0035     0.0002     0.0036     0.0224     0.0004     0.0014     0.0052     0.0040     0.0049 </r>
        <r>    -7.2915     0.0002     0.0000     0.0002     0.0013     0.0000     0.0001     0.0004     0.0004     0.0004 </r>
        <r>    -7.2222     0.0000     0.0000     0.0000     0.0000     0.0000     0.0000     0.0000     0.0000     0.0000 </r>
        <r>    -7.1529     0.0000     0.0000     0.0000     0.0000     0.0000     0.0000     0.0000     0.0000     0.0000 </r>
        <r>    -7.0837     0.0000     0.0000     0.0000     0.0000     0.0000     0.0000     0.0000     0.0000     0.0000 </r>
        <r>    -7.0144     0.0000     0.0000     0.0000     0.0000     0.0000     0.0000     0.0000     0.0000     0.0000 </r>
        <r>    -6.9451     0.0000     0.0000     0.0000     0.0000     0.0000     0.0000     0.0000     0.0000     0.0000 </r>
        <r>    -6.8759     0.0000     0.0000     0.0000     0.0000     0.0000     0.0000     0.0000     0.0000     0.0000 </r>
        <r>    -6.8066     0.0000     0.0000     0.0000     0.0000     0.0000     0.0000     0.0000     0.0000     0.0000 </r>
        <r>    -6.7373     0.0000     0.0000     0.0000     0.0000     0.0000     0.0000     0.0000     0.0000     0.0000 </r>
        <r>    -6.6681     0.0000     0.0000     0.0000     0.0000     0.0000     0.0000     0.0000     0.0000     0.0000 </r>
        <r>    -6.5988     0.0000     0.0000     0.0000     0.0000     0.0000     0.0000     0.0000     0.0000     0.0000 </r>
        <r>    -6.5295     0.0000     0.0000     0.0000     0.0000     0.0000     0.0000     0.0000     0.0000     0.0000 </r>
        <r>    -6.4603     0.0000     0.0000     0.0000     0.0000     0.0000     0.0000     0.0000     0.0000     0.0000 </r>
        <r>    -6.3910     0.0000     0.0000     0.0000     0.0000     0.0000     0.0000     0.0000     0.0000     0.0000 </r>
        <r>    -6.3217     0.0000     0.0000     0.0000     0.0000     0.0000     0.0000     0.0000     0.0000     0.0000 </r>
        <r>    -6.2525     0.0000     0.0000     0.0000     0.0000     0.0000     0.0000     0.0000     0.0000     0.0000 </r>
        <r>    -6.1832     0.0000     0.0000     0.0000     0.0000     0.0000     0.0000     0.0000     0.0000     0.0000 </r>
        <r>    -6.1139     0.0000     0.0000     0.0000     0.0000     0.0000     0.0000     0.0000     0.0000     0.0000 </r>
        <r>    -6.0447     0.0000     0.0000     0.0000     0.0000     0.0000     0.0000     0.0000     0.0000     0.0000 </r>
        <r>    -5.9754     0.0000     0.0000     0.0000     0.0000     0.0000     0.0000     0.0000     0.0000     0.0000 </r>
        <r>    -5.9061     0.0000     0.0000     0.0000     0.0000     0.0000     0.0000     0.0000     0.0000     0.0000 </r>
        <r>    -5.8369     0.0000     0.0000     0.0000     0.0000     0.0000     0.0000     0.0000     0.0000     0.0000 </r>
        <r>    -5.7676     0.0000     0.0000     0.0000     0.0000     0.0000     0.0000     0.0000     0.0000     0.0000 </r>
        <r>    -5.6983     0.0000     0.0000     0.0000     0.0000     0.0000     0.0000     0.0000     0.0000     0.0000 </r>
        <r>    -5.6291     0.0000     0.0000     0.0000     0.0000     0.0000     0.0000     0.0000     0.0000     0.0000 </r>
        <r>    -5.5598     0.0000     0.0000     0.0000     0.0000     0.0000     0.0000     0.0000     0.0000     0.0000 </r>
        <r>    -5.4905     0.0000     0.0000     0.0000     0.0000     0.0000     0.0000     0.0000     0.0000     0.0000 </r>
        <r>    -5.4213     0.0000     0.0000     0.0000     0.0000     0.0000     0.0000     0.0000     0.0000     0.0000 </r>
        <r>    -5.3520     0.0000     0.0000     0.0000     0.0000     0.0000     0.0000     0.0000     0.0000     0.0000 </r>
        <r>    -5.2827     0.0000     0.0000     0.0000     0.0000     0.0000     0.0000     0.0000     0.0000     0.0000 </r>
        <r>    -5.2135     0.0000     0.0000     0.0000     0.0000     0.0000     0.0000     0.0000     0.0000     0.0000 </r>
        <r>    -5.1442     0.0000     0.0000     0.0000     0.0000     0.0000     0.0000     0.0000     0.0000     0.0000 </r>
        <r>    -5.0749     0.0000     0.0000     0.0000     0.0000     0.0000     0.0000     0.0000     0.0000     0.0000 </r>
        <r>    -5.0057     0.0000     0.0000     0.0000     0.0000     0.0000     0.0000     0.0000     0.0000     0.0000 </r>
        <r>    -4.9364     0.0000     0.0000     0.0000     0.0000     0.0000     0.0000     0.0000     0.0000     0.0000 </r>
        <r>    -4.8671     0.0000     0.0000     0.0000     0.0000     0.0000     0.0000     0.0000     0.0000     0.0000 </r>
        <r>    -4.7978     0.0000     0.0000     0.0000     0.0000     0.0000     0.0000     0.0000     0.0000     0.0000 </r>
        <r>    -4.7286     0.0000     0.0000     0.0000     0.0000     0.0000     0.0000     0.0000     0.0000     0.0000 </r>
        <r>    -4.6593     0.0000     0.0000     0.0000     0.0000     0.0000     0.0000     0.0000     0.0000     0.0000 </r>
        <r>    -4.5900     0.0000     0.0000     0.0000     0.0000     0.0000     0.0000     0.0000     0.0000     0.0000 </r>
        <r>    -4.5208     0.0000     0.0000     0.0000     0.0000     0.0000     0.0000     0.0000     0.0000     0.0000 </r>
        <r>    -4.4515     0.0000     0.0000     0.0000     0.0000     0.0000     0.0000     0.0000     0.0000     0.0000 </r>
        <r>    -4.3822     0.0000     0.0000     0.0000     0.0000     0.0000     0.0000     0.0000     0.0000     0.0000 </r>
        <r>    -4.3130     0.0000     0.0000     0.0000     0.0000     0.0000     0.0000     0.0000     0.0000     0.0000 </r>
        <r>    -4.2437     0.0000     0.0000     0.0000     0.0000     0.0000     0.0000     0.0000     0.0000     0.0000 </r>
        <r>    -4.1744     0.0000     0.0000     0.0000     0.0000     0.0000     0.0000     0.0000     0.0000     0.0000 </r>
        <r>    -4.1052     0.0000     0.0000     0.0000     0.0000     0.0000     0.0000     0.0000     0.0000     0.0000 </r>
        <r>    -4.0359     0.0000     0.0000     0.0000     0.0000     0.0000     0.0000     0.0000     0.0000     0.0000 </r>
        <r>    -3.9666     0.0005     0.0000     0.0001     0.0001     0.0000     0.0001     0.0001     0.0010     0.0010 </r>
        <r>    -3.8974     0.0047     0.0003     0.0012     0.0006     0.0000     0.0008     0.0007     0.0088     0.0095 </r>
        <r>    -3.8281     0.0024     0.0001     0.0006     0.0003     0.0000     0.0004     0.0003     0.0046     0.0049 </r>
        <r>    -3.7588     0.0002     0.0001     0.0013     0.0024     0.0009     0.0005     0.0002     0.0004     0.0004 </r>
        <r>    -3.6896     0.0029     0.0012     0.0130     0.0288     0.0106     0.0068     0.0028     0.0038     0.0037 </r>
        <r>    -3.6203     0.0096     0.0011     0.0102     0.0239     0.0096     0.0067     0.0031     0.0109     0.0102 </r>
        <r>    -3.5510     0.0065     0.0006     0.0161     0.0142     0.0020     0.0043     0.0037     0.0077     0.0064 </r>
        <r>    -3.4818     0.0038     0.0007     0.0062     0.0092     0.0013     0.0012     0.0039     0.0034     0.0021 </r>
        <r>    -3.4125     0.0002     0.0000     0.0002     0.0005     0.0001     0.0000     0.0003     0.0002     0.0001 </r>
        <r>    -3.3432     0.0000     0.0000     0.0000     0.0000     0.0000     0.0000     0.0000     0.0000     0.0000 </r>
        <r>    -3.2740     0.0000     0.0000     0.0000     0.0000     0.0000     0.0000     0.0000     0.0000     0.0000 </r>
        <r>    -3.2047     0.0000     0.0000     0.0000     0.0000     0.0000     0.0000     0.0000     0.0000     0.0000 </r>
        <r>    -3.1354     0.0000     0.0000     0.0000     0.0000     0.0000     0.0000     0.0000     0.0000     0.0000 </r>
        <r>    -3.0662     0.0000     0.0000     0.0000     0.0000     0.0000     0.0000     0.0000     0.0000     0.0000 </r>
        <r>    -2.9969     0.0000     0.0000     0.0000     0.0000     0.0000     0.0000     0.0000     0.0000     0.0000 </r>
        <r>    -2.9276     0.0000     0.0000     0.0000     0.0000     0.0000     0.0000     0.0000     0.0000     0.0000 </r>
        <r>    -2.8584     0.0000     0.0000     0.0000     0.0000     0.0000     0.0000     0.0000     0.0000     0.0000 </r>
        <r>    -2.7891     0.0000     0.0000     0.0000     0.0000     0.0000     0.0000     0.0000     0.0000     0.0000 </r>
        <r>    -2.7198     0.0000     0.0000     0.0000     0.0000     0.0000     0.0000     0.0000     0.0000     0.0000 </r>
        <r>    -2.6506     0.0000     0.0000     0.0000     0.0000     0.0000     0.0000     0.0000     0.0000     0.0000 </r>
        <r>    -2.5813     0.0000     0.0000     0.0000     0.0000     0.0000     0.0000     0.0000     0.0000     0.0000 </r>
        <r>    -2.5120     0.0000     0.0000     0.0000     0.0000     0.0000     0.0000     0.0000     0.0000     0.0000 </r>
        <r>    -2.4428     0.0000     0.0000     0.0000     0.0000     0.0000     0.0000     0.0000     0.0000     0.0000 </r>
        <r>    -2.3735     0.0000     0.0000     0.0000     0.0000     0.0000     0.0000     0.0000     0.0000     0.0000 </r>
        <r>    -2.3042     0.0000     0.0000     0.0000     0.0000     0.0000     0.0000     0.0000     0.0000     0.0000 </r>
        <r>    -2.2350     0.0000     0.0000     0.0000     0.0000     0.0000     0.0000     0.0000     0.0000     0.0000 </r>
        <r>    -2.1657     0.0000     0.0000     0.0000     0.0000     0.0000     0.0000     0.0000     0.0000     0.0000 </r>
        <r>    -2.0964     0.0000     0.0000     0.0000     0.0000     0.0000     0.0000     0.0000     0.0000     0.0000 </r>
        <r>    -2.0272     0.0000     0.0000     0.0000     0.0000     0.0000     0.0000     0.0000     0.0000     0.0000 </r>
        <r>    -1.9579     0.0000     0.0000     0.0000     0.0000     0.0000     0.0000     0.0000     0.0000     0.0000 </r>
        <r>    -1.8886     0.0000     0.0000     0.0000     0.0000     0.0000     0.0000     0.0000     0.0000     0.0000 </r>
        <r>    -1.8194     0.0000     0.0000     0.0000     0.0000     0.0000     0.0000     0.0000     0.0000     0.0000 </r>
        <r>    -1.7501     0.0000     0.0000     0.0000     0.0000     0.0000     0.0000     0.0000     0.0000     0.0000 </r>
        <r>    -1.6808     0.0000     0.0000     0.0000     0.0000     0.0000     0.0000     0.0000     0.0000     0.0000 </r>
        <r>    -1.6116     0.0000     0.0000     0.0000     0.0000     0.0000     0.0000     0.0000     0.0000     0.0000 </r>
        <r>    -1.5423     0.0000     0.0000     0.0000     0.0000     0.0000     0.0000     0.0000     0.0000     0.0000 </r>
        <r>    -1.4730     0.0000     0.0000     0.0000     0.0000     0.0000     0.0000     0.0000     0.0000     0.0000 </r>
        <r>    -1.4038     0.0000     0.0000     0.0000     0.0000     0.0000     0.0000     0.0000     0.0000     0.0000 </r>
        <r>    -1.3345     0.0000     0.0000     0.0000     0.0000     0.0000     0.0000     0.0000     0.0000     0.0000 </r>
        <r>    -1.2652     0.0000     0.0000     0.0000     0.0000     0.0000     0.0000     0.0000     0.0000     0.0000 </r>
        <r>    -1.1960     0.0000     0.0000     0.0000     0.0000     0.0000     0.0000     0.0000     0.0000     0.0000 </r>
        <r>    -1.1267     0.0000     0.0000     0.0000     0.0000     0.0000     0.0000     0.0000     0.0000     0.0000 </r>
        <r>    -1.0574     0.0000     0.0000     0.0000     0.0000     0.0000     0.0000     0.0000     0.0000     0.0000 </r>
        <r>    -0.9882     0.0000     0.0000     0.0000     0.0000     0.0000     0.0000     0.0000     0.0000     0.0000 </r>
        <r>    -0.9189     0.0000     0.0000     0.0000     0.0000     0.0000     0.0000     0.0000     0.0000     0.0000 </r>
        <r>    -0.8496     0.0000     0.0000     0.0000     0.0000     0.0000     0.0000     0.0000     0.0000     0.0000 </r>
        <r>    -0.7804     0.0000     0.0000     0.0000     0.0000     0.0000     0.0000     0.0000     0.0000     0.0000 </r>
        <r>    -0.7111     0.0000     0.0000     0.0000     0.0000     0.0000     0.0000     0.0000     0.0000     0.0000 </r>
        <r>    -0.6418     0.0000     0.0000     0.0000     0.0000     0.0000     0.0000     0.0000     0.0001     0.0000 </r>
        <r>    -0.5726     0.0004     0.0009     0.0001     0.0001     0.0033     0.0022     0.0039     0.0205     0.0001 </r>
        <r>    -0.5033     0.0044     0.0062     0.0008     0.0006     0.0227     0.0149     0.0274     0.1372     0.0050 </r>
        <r>    -0.4340     0.1232     0.0034     0.0043     0.0025     0.0446     0.0292     0.1173     0.1231     0.3028 </r>
        <r>    -0.3648     0.4890     0.0068     0.0246     0.0093     0.1348     0.0991     0.3960     0.2737     1.2518 </r>
        <r>    -0.2955     0.3271     0.0121     0.0154     0.0048     0.1141     0.0794     0.2542     0.1781     0.9052 </r>
        <r>    -0.2262     0.0426     0.0094     0.0033     0.0023     0.1609     0.0900     0.1869     0.2488     0.5443 </r>
        <r>    -0.1570     0.0126     0.0029     0.0025     0.0003     0.1278     0.0283     0.0942     0.2313     0.4062 </r>
        <r>    -0.0877     0.0433     0.0022     0.0045     0.0010     0.0399     0.0120     0.0723     0.0521     0.2325 </r>
        <r>    -0.0184     0.0433     0.0025     0.0034     0.0060     0.0654     0.0335     0.0718     0.0898     0.1553 </r>
        <r>     0.0508     0.0252     0.0022     0.0023     0.0048     0.0508     0.0172     0.0360     0.1173     0.0938 </r>
        <r>     0.1201     0.0393     0.0075     0.0037     0.0037     0.1360     0.0091     0.0564     0.3656     0.2643 </r>
        <r>     0.1894     0.0189     0.0038     0.0051     0.0046     0.1882     0.0159     0.0944     0.5640     0.2304 </r>
        <r>     0.2586     0.0226     0.0011     0.0088     0.0040     0.1317     0.0296     0.0758     0.2466     0.1891 </r>
        <r>     0.3279     0.0216     0.0021     0.0228     0.0015     0.1338     0.0777     0.0722     0.5664     0.2578 </r>
        <r>     0.3972     0.0411     0.0087     0.0439     0.0039     0.2993     0.2815     0.2181     0.8940     0.2684 </r>
        <r>     0.4664     0.0257     0.0058     0.0108     0.0028     0.2887     0.1337     0.2940     0.3326     0.1037 </r>
        <r>     0.5357     0.0836     0.0196     0.0016     0.0073     0.2168     0.2974     0.3600     0.0611     0.0956 </r>
        <r>     0.6050     0.0583     0.0093     0.0048     0.0119     0.3878     0.2018     0.2371     0.2498     0.2509 </r>
        <r>     0.6742     0.0511     0.0020     0.0083     0.0248     0.2987     0.0835     0.6280     0.6059     0.3141 </r>
        <r>     0.7435     0.0237     0.0009     0.0026     0.0218     0.0672     0.0591     0.4315     0.2423     0.0966 </r>
        <r>     0.8128     0.0081     0.0072     0.0156     0.0296     0.5243     0.1065     0.3863     0.6771     0.6103 </r>
        <r>     0.8820     0.0059     0.0056     0.0136     0.0234     0.4307     0.0803     0.3230     0.5669     0.5360 </r>
        <r>     0.9513     0.0088     0.0012     0.0009     0.0127     0.1560     0.0501     0.0581     0.1955     0.0885 </r>
        <r>     1.0206     0.0790     0.0080     0.0027     0.1156     1.2178     0.5458     0.4660     1.6711     0.5325 </r>
        <r>     1.0898     0.0445     0.0042     0.0016     0.0711     0.7627     0.3975     0.3388     1.0035     0.2810 </r>
        <r>     1.1591     0.0115     0.0033     0.0007     0.0075     0.5047     0.2300     0.4735     0.1095     0.0424 </r>
        <r>     1.2284     0.0212     0.0064     0.0026     0.0176     1.8059     0.4171     0.7950     0.1759     0.3610 </r>
        <r>     1.2976     0.0191     0.0129     0.0188     0.0672     1.3800     0.6623     0.8261     0.6724     1.0546 </r>
        <r>     1.3669     0.0171     0.0104     0.0164     0.0497     1.0456     0.4991     0.5622     0.6883     1.2149 </r>
        <r>     1.4362     0.0177     0.0082     0.0043     0.0146     1.3682     0.9864     1.3495     1.0844     0.7058 </r>
        <r>     1.5054     0.0156     0.0081     0.0037     0.0089     0.8957     1.8068     1.0261     0.9756     0.5614 </r>
        <r>     1.5747     0.0232     0.0087     0.0058     0.0083     0.8621     2.1188     1.0485     0.7317     0.7732 </r>
        <r>     1.6440     0.0333     0.0109     0.0137     0.0262     1.2677     1.9753     1.4606     1.1816     1.0438 </r>
        <r>     1.7132     0.0257     0.0056     0.0089     0.0363     0.9696     2.3753     1.7441     1.3734     1.4144 </r>
        <r>     1.7825     0.0345     0.0050     0.0037     0.0183     0.9453     2.1776     2.9325     0.8394     1.6823 </r>
        <r>     1.8518     0.0234     0.0042     0.0013     0.0071     1.9061     0.8735     1.8218     0.4936     0.9430 </r>
        <r>     1.9210     0.0423     0.0043     0.0043     0.0064     0.9109     0.6547     0.6584     0.4914     0.6626 </r>
        <r>     1.9903     0.0582     0.0068     0.0056     0.0091     0.8388     1.4493     0.2270     0.3565     0.3846 </r>
        <r>     2.0596     0.0570     0.0120     0.0031     0.0116     0.4406     2.4816     0.2129     0.2198     0.2703 </r>
        <r>     2.1288     0.0371     0.0062     0.0105     0.0036     0.1488     0.6936     1.0732     0.4142     0.1500 </r>
        <r>     2.1981     0.0409     0.0036     0.0047     0.0018     0.2349     0.2978     0.4780     0.2649     0.1001 </r>
        <r>     2.2674     0.0846     0.0081     0.0037     0.0179     0.4945     0.4485     0.3000     0.5192     0.3551 </r>
        <r>     2.3366     0.0665     0.0051     0.0075     0.0485     0.3168     0.4232     0.4146     0.3852     0.2801 </r>
        <r>     2.4059     0.0130     0.0034     0.0125     0.0592     0.2713     0.4108     0.1938     0.5046     0.1164 </r>
        <r>     2.4752     0.0178     0.0012     0.0042     0.0106     0.1552     0.1732     0.0501     0.2153     0.1434 </r>
        <r>     2.5444     0.1217     0.0022     0.0009     0.0027     0.3005     0.3840     0.0807     0.3914     0.9200 </r>
        <r>     2.6137     0.0667     0.0010     0.0011     0.0079     0.2337     0.2616     0.1083     0.1904     0.4451 </r>
        <r>     2.6830     0.0126     0.0006     0.0005     0.0058     0.0541     0.0554     0.0210     0.0209     0.0337 </r>
        <r>     2.7522     0.0953     0.0068     0.0045     0.0623     0.3318     0.3832     0.0385     0.1058     0.1900 </r>
        <r>     2.8215     0.1114     0.0103     0.0075     0.1056     0.4125     0.4915     0.0271     0.0859     0.3150 </r>
        <r>     2.8908     0.0200     0.0018     0.0077     0.0223     0.0743     0.0664     0.0496     0.0264     0.0533 </r>
        <r>     2.9600     0.0720     0.0078     0.0225     0.0496     0.1861     0.0462     0.2367     0.2797     0.0698 </r>
        <r>     3.0293     0.1796     0.0120     0.0111     0.1043     0.4081     0.0857     0.2466     0.3254     0.1078 </r>
        <r>     3.0986     0.0412     0.0020     0.0015     0.0225     0.0838     0.0190     0.0414     0.0306     0.0291 </r>
        <r>     3.1678     0.0767     0.0051     0.0044     0.0544     0.1495     0.0772     0.1228     0.0690     0.1132 </r>
        <r>     3.2371     0.0679     0.0037     0.0061     0.0772     0.1932     0.1010     0.1502     0.1399     0.1037 </r>
        <r>     3.3064     0.0546     0.0013     0.0075     0.0212     0.0447     0.0096     0.0382     0.1350     0.1078 </r>
        <r>     3.3756     0.0362     0.0017     0.0056     0.0104     0.0295     0.0249     0.0253     0.0612     0.0482 </r>
        <r>     3.4449     0.0765     0.0073     0.0171     0.0366     0.0838     0.1567     0.1051     0.0813     0.0322 </r>
        <r>     3.5142     0.0322     0.0033     0.0077     0.0269     0.0552     0.0721     0.0897     0.0823     0.0331 </r>
        <r>     3.5834     0.0620     0.0083     0.0040     0.0865     0.2218     0.0513     0.2635     0.4840     0.1526 </r>
        <r>     3.6527     0.0489     0.0087     0.0129     0.0613     0.1970     0.1087     0.1854     0.3978     0.1191 </r>
        <r>     3.7220     0.0838     0.0044     0.0308     0.0329     0.2264     0.1961     0.1964     0.1698     0.2188 </r>
        <r>     3.7912     0.0987     0.0009     0.0204     0.0125     0.1268     0.0685     0.1095     0.0592     0.2641 </r>
        <r>     3.8605     0.0096     0.0000     0.0018     0.0007     0.0109     0.0047     0.0093     0.0055     0.0262 </r>
        <r>     3.9298     0.0036     0.0007     0.0006     0.0009     0.0001     0.0023     0.0058     0.0443     0.0214 </r>
        <r>     3.9990     0.0247     0.0023     0.0037     0.0037     0.0037     0.0089     0.0306     0.1198     0.0645 </r>
        <r>     4.0683     0.1238     0.0090     0.0148     0.0124     0.0477     0.0419     0.1259     0.2337     0.1794 </r>
        <r>     4.1376     0.1029     0.0108     0.0130     0.0070     0.0632     0.0446     0.0844     0.1534     0.2231 </r>
        <r>     4.2068     0.0499     0.0067     0.0337     0.0034     0.0083     0.0179     0.0425     0.3462     0.2337 </r>
        <r>     4.2761     0.0673     0.0025     0.0111     0.0047     0.0041     0.0046     0.0457     0.1475     0.1001 </r>
        <r>     4.3454     0.2420     0.0067     0.0271     0.0357     0.0563     0.0366     0.2329     0.2081     0.3180 </r>
        <r>     4.4146     0.1848     0.0034     0.0465     0.0468     0.1158     0.0459     0.2533     0.2040     0.4261 </r>
        <r>     4.4839     0.1246     0.0045     0.0167     0.0189     0.0679     0.0101     0.1900     0.1838     0.2981 </r>
        <r>     4.5532     0.1583     0.0083     0.0129     0.0226     0.0795     0.0117     0.2801     0.2407     0.3441 </r>
        <r>     4.6224     0.0359     0.0066     0.0014     0.0142     0.0199     0.0089     0.1164     0.0319     0.0655 </r>
        <r>     4.6917     0.0083     0.0024     0.0000     0.0050     0.0049     0.0033     0.0371     0.0029     0.0127 </r>
        <r>     4.7610     0.0002     0.0000     0.0000     0.0001     0.0001     0.0001     0.0007     0.0001     0.0002 </r>
        <r>     4.8302     0.0000     0.0000     0.0000     0.0000     0.0000     0.0000     0.0000     0.0000     0.0000 </r>
[...]
        <r>  0.0053  0.0192  0.0167  0.0038  0.0000  0.0000  0.0000  0.0000  0.0000 </r>
        <r>  0.0007  0.0325  0.0147  0.0003  0.0000  0.0000  0.0000  0.0000  0.0000 </r>
        <r>  0.0155  0.0001  0.0102  0.0136  0.0000  0.0000  0.0000  0.0000  0.0000 </r>
       </set>
       <set comment="band 55">
        <r>  0.0174  0.0004  0.0000  0.0002  0.0115  0.0136  0.0130  0.0022  0.0233 </r>
        <r>  0.0174  0.0004  0.0001  0.0000  0.0013  0.0304  0.0026  0.0061  0.0233 </r>
        <r>  0.0041  0.0005  0.0011  0.0016  0.0000  0.0006  0.0002  0.0198  0.0004 </r>
        <r>  0.0041  0.0022  0.0009  0.0001  0.0000  0.0160  0.0012  0.0024  0.0015 </r>
        <r>  0.0174  0.0001  0.0002  0.0002  0.0121  0.0087  0.0232  0.0124  0.0072 </r>
        <r>  0.0041  0.0020  0.0000  0.0012  0.0180  0.0021  0.0000  0.0003  0.0007 </r>
        <r>  0.0549  0.0226  0.0071  0.0117  0.0001  0.0001  0.0000  0.0000  0.0000 </r>
        <r>  0.0112  0.0121  0.0038  0.0062  0.0004  0.0003  0.0001  0.0001  0.0000 </r>
        <r>  0.0002  0.0180  0.0170  0.0099  0.0000  0.0000  0.0000  0.0000  0.0000 </r>
        <r>  0.0002  0.0343  0.0043  0.0063  0.0000  0.0000  0.0000  0.0000  0.0000 </r>
        <r>  0.0019  0.0000  0.0109  0.0207  0.0000  0.0000  0.0000  0.0000  0.0000 </r>
        <r>  0.0019  0.0168  0.0131  0.0018  0.0000  0.0000  0.0000  0.0000  0.0000 </r>
        <r>  0.0002  0.0188  0.0037  0.0223  0.0000  0.0000  0.0000  0.0000  0.0000 </r>
        <r>  0.0019  0.0188  0.0047  0.0082  0.0000  0.0000  0.0000  0.0000  0.0000 </r>
       </set>
       <set comment="band 56">
        <r>  0.0041  0.0022  0.0000  0.0010  0.0151  0.0009  0.0000  0.0015  0.0036 </r>
        <r>  0.0041  0.0020  0.0011  0.0001  0.0002  0.0199  0.0002  0.0005  0.0003 </r>
        <r>  0.0174  0.0001  0.0001  0.0003  0.0041  0.0168  0.0026  0.0197  0.0204 </r>
        <r>  0.0174  0.0004  0.0002  0.0000  0.0193  0.0058  0.0232  0.0153  0.0000 </r>
        <r>  0.0041  0.0005  0.0009  0.0018  0.0006  0.0000  0.0012  0.0183  0.0010 </r>
        <r>  0.0174  0.0004  0.0000  0.0002  0.0316  0.0001  0.0130  0.0158  0.0033 </r>
        <r>  0.0112  0.0121  0.0038  0.0062  0.0004  0.0003  0.0001  0.0001  0.0000 </r>
        <r>  0.0549  0.0226  0.0071  0.0117  0.0001  0.0001  0.0000  0.0000  0.0000 </r>
        <r>  0.0019  0.0188  0.0109  0.0020  0.0000  0.0000  0.0000  0.0000  0.0000 </r>
        <r>  0.0019  0.0168  0.0047  0.0102  0.0000  0.0000  0.0000  0.0000  0.0000 </r>
        <r>  0.0002  0.0188  0.0170  0.0091  0.0000  0.0000  0.0000  0.0000  0.0000 </r>
        <r>  0.0002  0.0343  0.0037  0.0068  0.0000  0.0000  0.0000  0.0000  0.0000 </r>
        <r>  0.0019  0.0000  0.0131  0.0185  0.0000  0.0000  0.0000  0.0000  0.0000 </r>
        <r>  0.0002  0.0180  0.0043  0.0226  0.0000  0.0000  0.0000  0.0000  0.0000 </r>
       </set>
       <set comment="band 57">
        <r>  0.0088  0.0021  0.0046  0.0009  0.0020  0.0006  0.0025  0.0006  0.0006 </r>
        <r>  0.0226  0.0001  0.0041  0.0080  0.0019  0.0013  0.0000  0.0000  0.0026 </r>
        <r>  0.0006  0.0084  0.0005  0.0021  0.0000  0.0005  0.0028  0.0011  0.0009 </r>
        <r>  0.0110  0.0007  0.0001  0.0114  0.0011  0.0014  0.0013  0.0055  0.0018 </r>
        <r>  0.0032  0.0002  0.0000  0.0008  0.0000  0.0008  0.0001  0.0000  0.0002 </r>
        <r>  0.0063  0.0016  0.0000  0.0003  0.0006  0.0029  0.0013  0.0013  0.0050 </r>
        <r>  0.0000  0.0227  0.0037  0.0263  0.0003  0.0022  0.0002  0.0028  0.0022 </r>
        <r>  0.0000  0.0000  0.0745  0.0441  0.0035  0.0051  0.0002  0.0000  0.0000 </r>
        <r>  0.0136  0.0038  0.0106  0.0060  0.0000  0.0000  0.0000  0.0000  0.0000 </r>
        <r>  0.0099  0.0177  0.0092  0.0015  0.0000  0.0000  0.0000  0.0000  0.0000 </r>
        <r>  0.0034  0.0018  0.0218  0.0033  0.0000  0.0000  0.0000  0.0000  0.0000 </r>
        <r>  0.0031  0.0213  0.0132  0.0013  0.0000  0.0000  0.0000  0.0000  0.0000 </r>
        <r>  0.0003  0.0003  0.0000  0.0011  0.0000  0.0000  0.0000  0.0000  0.0000 </r>
        <r>  0.0000  0.0085  0.0005  0.0023  0.0000  0.0000  0.0000  0.0000  0.0000 </r>
       </set>
       <set comment="band 58">
        <r>  0.0120  0.0010  0.0068  0.0006  0.0009  0.0015  0.0055  0.0029  0.0020 </r>
        <r>  0.0027  0.0013  0.0004  0.0010  0.0018  0.0018  0.0017  0.0009  0.0025 </r>
        <r>  0.0095  0.0015  0.0020  0.0001  0.0005  0.0001  0.0002  0.0003  0.0005 </r>
        <r>  0.0027  0.0006  0.0012  0.0019  0.0001  0.0018  0.0018  0.0002  0.0005 </r>
        <r>  0.0032  0.0121  0.0011  0.0008  0.0002  0.0006  0.0000  0.0002  0.0050 </r>
        <r>  0.0224  0.0001  0.0063  0.0070  0.0007  0.0026  0.0026  0.0002  0.0012 </r>
        <r>  0.0000  0.0049  0.0935  0.0202  0.0037  0.0043  0.0002  0.0003  0.0003 </r>
        <r>  0.0000  0.0238  0.0078  0.0212  0.0007  0.0001  0.0005  0.0050  0.0013 </r>
        <r>  0.0006  0.0022  0.0087  0.0000  0.0000  0.0000  0.0000  0.0000  0.0000 </r>
        <r>  0.0017  0.0114  0.0002  0.0168  0.0000  0.0000  0.0000  0.0000  0.0000 </r>
        <r>  0.0030  0.0011  0.0002  0.0004  0.0000  0.0000  0.0000  0.0000  0.0000 </r>
        <r>  0.0050  0.0133  0.0024  0.0039  0.0000  0.0000  0.0000  0.0000  0.0000 </r>
        <r>  0.0043  0.0037  0.0032  0.0278  0.0000  0.0000  0.0000  0.0000  0.0000 </r>
        <r>  0.0158  0.0058  0.0125  0.0107  0.0000  0.0000  0.0000  0.0000  0.0000 </r>
       </set>
       <set comment="band 59">
        <r>  0.0000  0.0001  0.0080  0.0004  0.0000  0.0003  0.0009  0.0011  0.0033 </r>
        <r>  0.0092  0.0003  0.0001  0.0135  0.0003  0.0001  0.0011  0.0003  0.0078 </r>
        <r>  0.0134  0.0065  0.0021  0.0017  0.0003  0.0000  0.0001  0.0010  0.0058 </r>
        <r>  0.0203  0.0054  0.0019  0.0028  0.0003  0.0010  0.0010  0.0006  0.0016 </r>
        <r>  0.0089  0.0017  0.0006  0.0004  0.0004  0.0094  0.0024  0.0000  0.0000 </r>
        <r>  0.0007  0.0001  0.0002  0.0002  0.0000  0.0001  0.0003  0.0000  0.0010 </r>
        <r>  0.0000  0.0489  0.0044  0.0653  0.0001  0.0015  0.0000  0.0064  0.0007 </r>
        <r>  0.0000  0.0001  0.0355  0.0170  0.0026  0.0039  0.0000  0.0002  0.0009 </r>
        <r>  0.0038  0.0238  0.0139  0.0010  0.0000  0.0000  0.0000  0.0000  0.0000 </r>
        <r>  0.0026  0.0205  0.0003  0.0001  0.0000  0.0000  0.0000  0.0000  0.0000 </r>
        <r>  0.0128  0.0020  0.0193  0.0103  0.0000  0.0000  0.0000  0.0000  0.0000 </r>
        <r>  0.0109  0.0057  0.0022  0.0061  0.0000  0.0000  0.0000  0.0000  0.0000 </r>
        <r>  0.0001  0.0027  0.0119  0.0000  0.0000  0.0000  0.0000  0.0000  0.0000 </r>
        <r>  0.0001  0.0011  0.0004  0.0029  0.0000  0.0000  0.0000  0.0000  0.0000 </r>
       </set>
       <set comment="band 60">
        <r>  0.0143  0.0039  0.0018  0.0004  0.0002  0.0003  0.0005  0.0014  0.0001 </r>
        <r>  0.0004  0.0002  0.0000  0.0016  0.0000  0.0001  0.0002  0.0000  0.0026 </r>
        <r>  0.0115  0.0054  0.0000  0.0002  0.0087  0.0014  0.0000  0.0001  0.0028 </r>
        <r>  0.0011  0.0003  0.0017  0.0026  0.0001  0.0001  0.0011  0.0032  0.0027 </r>
        <r>  0.0197  0.0079  0.0030  0.0021  0.0001  0.0001  0.0027  0.0027  0.0022 </r>
        <r>  0.0056  0.0000  0.0146  0.0002  0.0005  0.0000  0.0051  0.0016  0.0000 </r>
        <r>  0.0000  0.0013  0.0401  0.0112  0.0021  0.0028  0.0003  0.0015  0.0011 </r>
        <r>  0.0000  0.0539  0.0240  0.0407  0.0005  0.0005  0.0000  0.0071  0.0007 </r>
        <r>  0.0022  0.0030  0.0088  0.0010  0.0000  0.0000  0.0000  0.0000  0.0000 </r>
        <r>  0.0060  0.0013  0.0037  0.0002  0.0000  0.0000  0.0000  0.0000  0.0000 </r>
        <r>  0.0010  0.0047  0.0007  0.0173  0.0000  0.0000  0.0000  0.0000  0.0000 </r>
        <r>  0.0012  0.0105  0.0019  0.0010  0.0000  0.0000  0.0000  0.0000  0.0000 </r>
        <r>  0.0155  0.0028  0.0045  0.0248  0.0000  0.0000  0.0000  0.0000  0.0000 </r>
        <r>  0.0044  0.0174  0.0000  0.0207  0.0000  0.0000  0.0000  0.0000  0.0000 </r>
       </set>
       <set comment="band 61">
        <r>  0.0004  0.0025  0.0020  0.0003  0.0024  0.0001  0.0005  0.0051  0.0003 </r>
        <r>  0.0004  0.0011  0.0026  0.0012  0.0049  0.0002  0.0004  0.0008  0.0021 </r>
        <r>  0.0022  0.0061  0.0006  0.0002  0.0013  0.0013  0.0051  0.0014  0.0000 </r>
        <r>  0.0022  0.0019  0.0003  0.0046  0.0028  0.0021  0.0001  0.0036  0.0007 </r>
        <r>  0.0004  0.0005  0.0008  0.0035  0.0000  0.0075  0.0000  0.0006  0.0002 </r>
        <r>  0.0022  0.0002  0.0050  0.0017  0.0017  0.0012  0.0018  0.0030  0.0016 </r>
        <r>  0.0186  0.0714  0.0226  0.0369  0.0007  0.0004  0.0001  0.0002  0.0001 </r>
        <r>  0.0326  0.0271  0.0086  0.0140  0.0001  0.0001  0.0000  0.0000  0.0000 </r>
        <r>  0.0007  0.0006  0.0037  0.0247  0.0000  0.0000  0.0000  0.0000  0.0000 </r>
        <r>  0.0007  0.0009  0.0279  0.0002  0.0000  0.0000  0.0000  0.0000  0.0000 </r>
        <r>  0.0066  0.0011  0.0108  0.0124  0.0000  0.0000  0.0000  0.0000  0.0000 </r>
        <r>  0.0066  0.0128  0.0069  0.0045  0.0000  0.0000  0.0000  0.0000  0.0000 </r>
        <r>  0.0007  0.0204  0.0028  0.0058  0.0000  0.0000  0.0000  0.0000  0.0000 </r>
        <r>  0.0066  0.0096  0.0072  0.0075  0.0000  0.0000  0.0000  0.0000  0.0000 </r>
       </set>
       <set comment="band 62">
        <r>  0.0022  0.0019  0.0050  0.0000  0.0032  0.0017  0.0018  0.0025  0.0001 </r>
        <r>  0.0022  0.0002  0.0006  0.0061  0.0006  0.0022  0.0051  0.0005  0.0007 </r>
        <r>  0.0004  0.0005  0.0026  0.0017  0.0070  0.0005  0.0004  0.0004  0.0000 </r>
        <r>  0.0004  0.0025  0.0008  0.0015  0.0001  0.0023  0.0000  0.0057  0.0001 </r>
        <r>  0.0022  0.0061  0.0003  0.0004  0.0007  0.0019  0.0001  0.0037  0.0028 </r>
        <r>  0.0004  0.0011  0.0020  0.0018  0.0008  0.0043  0.0005  0.0009  0.0019 </r>
        <r>  0.0326  0.0271  0.0086  0.0140  0.0001  0.0001  0.0000  0.0000  0.0000 </r>
        <r>  0.0186  0.0714  0.0226  0.0369  0.0007  0.0004  0.0001  0.0002  0.0001 </r>
        <r>  0.0066  0.0096  0.0108  0.0039  0.0000  0.0000  0.0000  0.0000  0.0000 </r>
        <r>  0.0066  0.0128  0.0072  0.0042  0.0000  0.0000  0.0000  0.0000  0.0000 </r>
        <r>  0.0007  0.0204  0.0037  0.0049  0.0000  0.0000  0.0000  0.0000  0.0000 </r>
        <r>  0.0007  0.0009  0.0028  0.0253  0.0000  0.0000  0.0000  0.0000  0.0000 </r>
        <r>  0.0066  0.0011  0.0069  0.0163  0.0000  0.0000  0.0000  0.0000  0.0000 </r>
        <r>  0.0007  0.0006  0.0279  0.0006  0.0000  0.0000  0.0000  0.0000  0.0000 </r>
       </set>
       <set comment="band 63">
        <r>  0.0023  0.0004  0.0003  0.0003  0.0000  0.0026  0.0002  0.0022  0.0026 </r>
        <r>  0.0462  0.0008  0.0036  0.0001  0.0053  0.0069  0.0043  0.0000  0.0085 </r>
        <r>  0.0188  0.0003  0.0040  0.0026  0.0000  0.0061  0.0051  0.0014  0.0012 </r>
        <r>  0.0009  0.0008  0.0012  0.0057  0.0030  0.0007  0.0053  0.0000  0.0000 </r>
        <r>  0.0691  0.0001  0.0000  0.0081  0.0012  0.0207  0.0003  0.0008  0.0006 </r>
        <r>  0.0115  0.0004  0.0011  0.0010  0.0014  0.0018  0.0043  0.0002  0.0012 </r>
        <r>  0.0000  0.0000  0.0000  0.0000  0.0002  0.0009  0.0019  0.0009  0.0012 </r>
        <r>  0.0000  0.0094  0.0017  0.0105  0.0002  0.0007  0.0021  0.0009  0.0000 </r>
        <r>  0.0001  0.0292  0.0056  0.0001  0.0000  0.0000  0.0000  0.0000  0.0000 </r>
        <r>  0.0129  0.0001  0.0345  0.0010  0.0000  0.0000  0.0000  0.0000  0.0000 </r>
        <r>  0.0044  0.0030  0.0000  0.0117  0.0000  0.0000  0.0000  0.0000  0.0000 </r>
        <r>  0.0001  0.0044  0.0056  0.0000  0.0000  0.0000  0.0000  0.0000  0.0000 </r>
        <r>  0.0110  0.0180  0.0365  0.0004  0.0000  0.0000  0.0000  0.0000  0.0000 </r>
        <r>  0.0032  0.0052  0.0014  0.0074  0.0000  0.0000  0.0000  0.0000  0.0000 </r>
       </set>
       <set comment="band 64">
        <r>  0.0004  0.0006  0.0065  0.0002  0.0001  0.0035  0.0014  0.0010  0.0026 </r>
        <r>  0.0127  0.0005  0.0007  0.0013  0.0009  0.0025  0.0041  0.0007  0.0012 </r>
        <r>  0.0721  0.0001  0.0078  0.0006  0.0181  0.0045  0.0004  0.0017  0.0000 </r>
        <r>  0.0044  0.0006  0.0001  0.0005  0.0022  0.0003  0.0040  0.0011  0.0000 </r>
        <r>  0.0180  0.0005  0.0013  0.0055  0.0057  0.0004  0.0057  0.0000  0.0019 </r>
        <r>  0.0411  0.0008  0.0004  0.0028  0.0040  0.0072  0.0023  0.0001  0.0101 </r>
        <r>  0.0000  0.0096  0.0068  0.0051  0.0007  0.0001  0.0001  0.0020  0.0010 </r>
        <r>  0.0000  0.0000  0.0000  0.0000  0.0008  0.0005  0.0000  0.0002  0.0036 </r>
        <r>  0.0035  0.0061  0.0051  0.0032  0.0000  0.0000  0.0000  0.0000  0.0000 </r>
        <r>  0.0000  0.0052  0.0004  0.0045  0.0000  0.0000  0.0000  0.0000  0.0000 </r>
        <r>  0.0100  0.0157  0.0010  0.0380  0.0000  0.0000  0.0000  0.0000  0.0000 </r>
        <r>  0.0137  0.0001  0.0008  0.0363  0.0000  0.0000  0.0000  0.0000  0.0000 </r>
        <r>  0.0041  0.0027  0.0116  0.0002  0.0000  0.0000  0.0000  0.0000  0.0000 </r>
        <r>  0.0003  0.0277  0.0006  0.0051  0.0000  0.0000  0.0000  0.0000  0.0000 </r>
       </set>
       <set comment="band 65">
        <r>  0.0201  0.0036  0.0002  0.0004  0.0000  0.0000  0.0029  0.0005  0.0090 </r>
        <r>  0.0079  0.0014  0.0034  0.0042  0.0020  0.0015  0.0018  0.0033  0.0032 </r>
        <r>  0.0063  0.0001  0.0002  0.0004  0.0022  0.0002  0.0043  0.0046  0.0014 </r>
        <r>  0.0742  0.0067  0.0001  0.0011  0.0003  0.0001  0.0038  0.0233  0.0024 </r>
        <r>  0.0028  0.0036  0.0003  0.0001  0.0000  0.0000  0.0014  0.0006  0.0054 </r>
        <r>  0.0373  0.0000  0.0010  0.0040  0.0000  0.0082  0.0002  0.0048  0.0005 </r>
        <r>  0.0000  0.0002  0.0110  0.0104  0.0008  0.0003  0.0025  0.0001  0.0001 </r>
        <r>  0.0000  0.0000  0.0000  0.0000  0.0004  0.0009  0.0024  0.0011  0.0002 </r>
        <r>  0.0016  0.0084  0.0029  0.0002  0.0000  0.0000  0.0000  0.0000  0.0000 </r>
        <r>  0.0051  0.0060  0.0010  0.0087  0.0000  0.0000  0.0000  0.0000  0.0000 </r>
        <r>  0.0059  0.0196  0.0047  0.0046  0.0000  0.0000  0.0000  0.0000  0.0000 </r>
        <r>  0.0023  0.0005  0.0448  0.0011  0.0000  0.0000  0.0000  0.0000  0.0000 </r>
        <r>  0.0010  0.0036  0.0004  0.0075  0.0000  0.0000  0.0000  0.0000  0.0000 </r>
        <r>  0.0157  0.0051  0.0430  0.0020  0.0000  0.0000  0.0000  0.0000  0.0000 </r>
       </set>
       <set comment="band 66">
        <r>  0.0762  0.0069  0.0012  0.0000  0.0002  0.0001  0.0022  0.0155  0.0117 </r>
        <r>  0.0323  0.0000  0.0043  0.0002  0.0069  0.0003  0.0004  0.0038  0.0011 </r>
        <r>  0.0019  0.0038  0.0001  0.0005  0.0000  0.0000  0.0009  0.0005  0.0060 </r>
        <r>  0.0196  0.0034  0.0004  0.0000  0.0000  0.0000  0.0018  0.0004  0.0100 </r>
        <r>  0.0093  0.0001  0.0002  0.0006  0.0005  0.0027  0.0075  0.0007  0.0026 </r>
        <r>  0.0093  0.0015  0.0056  0.0018  0.0026  0.0010  0.0000  0.0021  0.0066 </r>
        <r>  0.0000  0.0000  0.0000  0.0000  0.0007  0.0008  0.0006  0.0001  0.0029 </r>
        <r>  0.0000  0.0004  0.0161  0.0050  0.0001  0.0010  0.0004  0.0000  0.0022 </r>
        <r>  0.0159  0.0037  0.0001  0.0449  0.0000  0.0000  0.0000  0.0000  0.0000 </r>
        <r>  0.0031  0.0005  0.0091  0.0383  0.0000  0.0000  0.0000  0.0000  0.0000 </r>
        <r>  0.0008  0.0032  0.0079  0.0000  0.0000  0.0000  0.0000  0.0000  0.0000 </r>
        <r>  0.0050  0.0067  0.0062  0.0028  0.0000  0.0000  0.0000  0.0000  0.0000 </r>
        <r>  0.0050  0.0173  0.0089  0.0024  0.0000  0.0000  0.0000  0.0000  0.0000 </r>
        <r>  0.0019  0.0094  0.0000  0.0025  0.0000  0.0000  0.0000  0.0000  0.0000 </r>
       </set>
       <set comment="band 67">
        <r>  0.0405  0.0043  0.0000  0.0001  0.0005  0.0003  0.0003  0.0002  0.0081 </r>
        <r>  0.0405  0.0001  0.0042  0.0001  0.0003  0.0013  0.0047  0.0001  0.0029 </r>
        <r>  0.0172  0.0009  0.0132  0.0003  0.0001  0.0011  0.0014  0.0011  0.0020 </r>
        <r>  0.0172  0.0143  0.0001  0.0001  0.0006  0.0001  0.0043  0.0000  0.0009 </r>
        <r>  0.0405  0.0002  0.0001  0.0042  0.0002  0.0005  0.0073  0.0001  0.0013 </r>
        <r>  0.0172  0.0007  0.0000  0.0137  0.0024  0.0005  0.0000  0.0002  0.0027 </r>
        <r>  0.0010  0.0018  0.0006  0.0010  0.0008  0.0005  0.0001  0.0002  0.0001 </r>
        <r>  0.0002  0.0008  0.0003  0.0004  0.0060  0.0037  0.0008  0.0019  0.0007 </r>
        <r>  0.0002  0.0147  0.0029  0.0117  0.0000  0.0000  0.0000  0.0000  0.0000 </r>
        <r>  0.0002  0.0127  0.0085  0.0082  0.0000  0.0000  0.0000  0.0000  0.0000 </r>
        <r>  0.0001  0.0072  0.0033  0.0015  0.0000  0.0000  0.0000  0.0000  0.0000 </r>
        <r>  0.0001  0.0076  0.0007  0.0037  0.0000  0.0000  0.0000  0.0000  0.0000 </r>
        <r>  0.0002  0.0199  0.0043  0.0051  0.0000  0.0000  0.0000  0.0000  0.0000 </r>
        <r>  0.0001  0.0040  0.0028  0.0052  0.0000  0.0000  0.0000  0.0000  0.0000 </r>
       </set>
       <set comment="band 68">
        <r>  0.0172  0.0143  0.0000  0.0001  0.0002  0.0004  0.0000  0.0003  0.0049 </r>
        <r>  0.0172  0.0007  0.0132  0.0005  0.0011  0.0018  0.0014  0.0005  0.0011 </r>
        <r>  0.0405  0.0002  0.0042  0.0001  0.0004  0.0002  0.0047  0.0012  0.0028 </r>
        <r>  0.0405  0.0043  0.0001  0.0001  0.0005  0.0003  0.0073  0.0003  0.0010 </r>
        <r>  0.0172  0.0009  0.0001  0.0134  0.0012  0.0001  0.0043  0.0001  0.0002 </r>
        <r>  0.0405  0.0001  0.0000  0.0043  0.0016  0.0001  0.0003  0.0004  0.0070 </r>
        <r>  0.0002  0.0008  0.0003  0.0004  0.0060  0.0037  0.0008  0.0019  0.0007 </r>
        <r>  0.0010  0.0018  0.0006  0.0010  0.0008  0.0005  0.0001  0.0002  0.0001 </r>
        <r>  0.0001  0.0040  0.0033  0.0047  0.0000  0.0000  0.0000  0.0000  0.0000 </r>
        <r>  0.0001  0.0076  0.0028  0.0015  0.0000  0.0000  0.0000  0.0000  0.0000 </r>
        <r>  0.0002  0.0199  0.0029  0.0065  0.0000  0.0000  0.0000  0.0000  0.0000 </r>
        <r>  0.0002  0.0127  0.0043  0.0124  0.0000  0.0000  0.0000  0.0000  0.0000 </r>
        <r>  0.0001  0.0072  0.0007  0.0041  0.0000  0.0000  0.0000  0.0000  0.0000 </r>
        <r>  0.0002  0.0147  0.0085  0.0062  0.0000  0.0000  0.0000  0.0000  0.0000 </r>
       </set>
      </set>
     </set>
    </set>
   </array>
  </projected>
 </calculation>
 <structure name="finalpos" >
  <crystal>
   <varray name="basis" >
    <v>       6.82737432       0.18328729      -1.56314035 </v>
    <v>      -1.99978775       6.53050464      -1.56314031 </v>
    <v>       0.13179241       0.18328726       7.00279105 </v>
   </varray>
   <i name="volume">    318.63121791 </i>
   <varray name="rec_basis" >
    <v>       0.14442484       0.04330425      -0.00385150 </v>
    <v>      -0.00492741       0.15069674      -0.00385152 </v>
    <v>       0.03113817       0.04330427       0.14108076 </v>
   </varray>
  </crystal>
  <varray name="positions" >
   <v>       0.41447437       0.73987505       0.95178555 </v>
   <v>       0.95178555       0.41447437       0.73987505 </v>
   <v>       0.91447437       0.45178555       0.23987505 </v>
   <v>       0.45178555       0.23987505       0.91447437 </v>
   <v>       0.73987505       0.95178555       0.41447437 </v>
   <v>       0.23987505       0.91447437       0.45178555 </v>
   <v>       0.50634957       0.50634957       0.50634957 </v>
   <v>       0.00634957       0.00634957       0.00634957 </v>
   <v>       0.09757356       0.76488465       0.75095725 </v>
   <v>       0.76488465       0.75095725       0.09757356 </v>
   <v>       0.26488465       0.59757356       0.25095725 </v>
   <v>       0.59757356       0.25095725       0.26488465 </v>
   <v>       0.75095725       0.09757356       0.76488465 </v>
   <v>       0.25095725       0.26488465       0.59757356 </v>
  </varray>
 </structure>
</modeling>
