    2    2   50    1
  0.8162203E+02  0.3070000E-09  0.3070000E-09  0.2000000E-08  0.5000000E-15
  1.000000000000000E-004
  CAR 
 unknown system                          
      8     27     16
 
  0.0000000E+00  0.0000000E+00  0.0000000E+00  0.4444444E-02
    1      -17.134955
    2       -7.188477
    3       -4.647039
    4       -4.647038
    5       -0.246712
    6        1.406909
    7        1.529855
    8        2.542739
    9        2.558827
   10        3.938777
   11        4.345890
   12        4.345891
   13        4.579638
   14        5.811778
   15        6.414280
   16        8.564616
 
  0.6666667E-01  0.0000000E+00  0.0000000E+00  0.2666667E-01
    1      -17.060437
    2       -7.110431
    3       -4.973910
    4       -4.736209
    5       -0.125222
    6        1.492258
    7        1.626165
    8        2.643134
    9        2.655373
   10        3.980264
   11        4.259657
   12        4.582129
   13        4.604003
   14        5.939555
   15        6.295203
   16        8.620725
 
  0.1333333E+00  0.0000000E+00  0.0000000E+00  0.2666667E-01
    1      -16.838409
    2       -6.877835
    3       -5.814389
    4       -4.971872
    5        0.183161
    6        1.739965
    7        1.909421
    8        2.861196
    9        2.883978
   10        3.675341
   11        4.558353
   12        4.644837
   13        5.255591
   14        6.030383
   15        6.331448
   16        8.614267
 
  0.2000000E+00 -0.1387779E-16  0.0000000E+00  0.2666667E-01
    1      -16.473996
    2       -6.929296
    3       -6.495997
    4       -5.283271
    5        0.586667
    6        2.090997
    7        2.344814
    8        2.729418
    9        3.182732
   10        3.820761
   11        4.197470
   12        5.289985
   13        6.059412
   14        6.283644
   15        6.966100
   16        8.771564
 
  0.2666667E+00  0.0000000E+00  0.0000000E+00  0.2666667E-01
    1      -15.978184
    2       -8.145265
    3       -5.976731
    4       -5.600787
    5        0.922795
    6        2.063055
    7        2.438553
    8        3.093161
    9        3.291868
   10        4.298765
   11        4.426668
   12        6.035732
   13        6.503679
   14        7.570065
   15        7.736104
   16        8.945460
 
  0.3333333E+00  0.2775558E-16  0.0000000E+00  0.2666667E-01
    1      -15.374607
    2       -9.345763
    3       -5.873781
    4       -5.346475
    5        0.931573
    6        1.137102
    7        2.798359
    8        3.909738
    9        3.926751
   10        5.017187
   11        5.230913
   12        6.803496
   13        7.148317
   14        8.381313
   15        8.904586
   16        9.004700
 
  0.4000000E+00 -0.2775558E-16  0.0000000E+00  0.2666667E-01
    1      -14.722938
    2      -10.418725
    3       -6.070417
    4       -4.672536
    5        0.086806
    6        0.764673
    7        3.592942
    8        4.840700
    9        4.955306
   10        5.962355
   11        6.115633
   12        7.208703
   13        7.676851
   14        8.515869
   15        8.824783
   16        9.203581
 
  0.4666667E+00  0.5551115E-16  0.0000000E+00  0.2666667E-01
    1      -14.203718
    2      -11.154993
    3       -6.172742
    4       -4.147991
    5       -0.652874
    6        0.648740
    7        4.509138
    8        5.882554
    9        6.002916
   10        6.272444
   11        6.892147
   12        7.470666
   13        7.474128
   14        7.673153
   15        8.284064
   16        8.695082
 
  0.6666667E-01  0.6666667E-01  0.0000000E+00  0.2666667E-01
    1      -16.912149
    2       -6.955091
    3       -5.528725
    4       -4.928809
    5        0.091298
    6        1.659171
    7        1.816672
    8        2.806377
    9        2.846819
   10        3.853000
   11        4.296465
   12        4.597025
   13        5.094889
   14        6.098355
   15        6.222903
   16        8.603233
 
  0.1333333E+00  0.6666667E-01  0.0000000E+00  0.5333333E-01
    1      -16.618807
    2       -6.647699
    3       -6.450115
    4       -5.268039
    5        0.463747
    6        1.966620
    7        2.190090
    8        3.003588
    9        3.091041
   10        3.682944
   11        4.359656
   12        4.747214
   13        5.857037
   14        5.999629
   15        6.856146
   16        8.692479
 
  0.2000000E+00  0.6666667E-01  0.0000000E+00  0.5333333E-01
    1      -16.188128
    2       -7.570504
    3       -6.196354
    4       -5.646081
    5        0.903726
    6        2.213418
    7        2.622014
    8        2.889042
    9        3.246394
   10        4.118273
   11        4.155615
   12        5.483253
   13        6.293865
   14        6.735268
   15        7.763770
   16        8.683016
 
  0.2666667E+00  0.6666667E-01  0.0000000E+00  0.5333333E-01
    1      -15.636232
    2       -8.752400
    3       -5.989839
    4       -5.618674
    5        1.197867
    6        1.633832
    7        2.690760
    8        3.554161
    9        3.598905
   10        4.679799
   11        4.845723
   12        6.326292
   13        6.827181
   14        7.748462
   15        8.318411
   16        8.734944
 
  0.3333333E+00  0.6666667E-01  0.0000000E+00  0.5333333E-01
    1      -15.000109
    2       -9.881672
    3       -6.257158
    4       -4.956114
    5        0.594676
    6        1.164815
    7        3.248329
    8        4.407076
    9        4.487503
   10        5.518841
   11        5.717548
   12        7.077995
   13        7.224069
   14        8.331736
   15        8.531887
   16        9.450381
 
  0.4000000E+00  0.6666667E-01  0.0000000E+00  0.5333333E-01
    1      -14.382605
    2      -10.810464
    3       -6.425051
    4       -4.322162
    5       -0.332977
    6        1.041772
    7        4.125348
    8        5.382225
    9        5.600875
   10        6.379539
   11        6.438531
   12        7.280255
   13        7.314151
   14        8.395618
   15        8.524085
   16        8.779680
 
  0.4666667E+00  0.6666667E-01  0.0000000E+00  0.2666667E-01
    1      -14.078475
    2      -11.220746
    3       -6.482157
    4       -4.017537
    5       -0.743234
    6        0.989774
    7        4.788016
    8        5.941936
    9        6.033380
   10        6.908601
   11        6.921244
   12        6.977452
   13        7.435597
   14        7.908609
   15        8.041531
   16        8.433230
 
  0.1333333E+00  0.1333333E+00  0.0000000E+00  0.2666667E-01
    1      -16.258824
    2       -7.282920
    3       -6.270279
    4       -5.783600
    5        0.909267
    6        2.221087
    7        2.654842
    8        3.203833
    9        3.259825
   10        3.896906
   11        4.155405
   12        5.007643
   13        6.233602
   14        6.482641
   15        7.812031
   16        8.493352
 
  0.2000000E+00  0.1333333E+00  0.0000000E+00  0.5333333E-01
    1      -15.770139
    2       -8.265645
    3       -6.317714
    4       -5.757894
    5        1.435464
    6        1.936949
    7        3.088241
    8        3.391713
    9        3.477082
   10        4.507106
   11        4.524839
   12        5.674535
   13        6.626825
   14        7.230716
   15        7.767930
   16        8.797223
 
  0.2666667E+00  0.1333333E+00  0.0000000E+00  0.5333333E-01
    1      -15.177662
    2       -9.315109
    3       -6.747677
    4       -5.137648
    5        1.053928
    6        1.830703
    7        3.261621
    8        4.145388
    9        4.203778
   10        5.232651
   11        5.344880
   12        6.570801
   13        6.595172
   14        7.880891
   15        8.168350
   16        9.381269
 
  0.3333333E+00  0.1333333E+00  0.0000000E+00  0.5333333E-01
    1      -14.543003
    2      -10.296675
    3       -7.038494
    4       -4.477107
    5        0.097632
    6        1.910344
    7        3.893458
    8        4.953278
    9        5.229598
   10        5.889593
   11        6.223120
   12        6.670949
   13        7.330417
   14        8.698118
   15        8.741392
   16        9.385642
 
  0.4000000E+00  0.1333333E+00  0.0000000E+00  0.5333333E-01
    1      -14.044601
    2      -10.980485
    3       -7.184245
    4       -3.965801
    5       -0.587097
    6        1.878700
    7        4.717446
    8        5.331099
    9        6.248638
   10        6.556667
   11        6.611676
   12        7.586495
   13        7.702198
   14        7.954188
   15        7.996579
   16        8.829548
 
  0.2000000E+00  0.2000000E+00  0.0000000E+00  0.2666667E-01
    1      -15.238503
    2       -9.016762
    3       -7.045008
    4       -5.199867
    5        1.251759
    6        2.080765
    7        3.567915
    8        4.060120
    9        4.102383
   10        5.048314
   11        5.129694
   12        6.217380
   13        6.311617
   14        7.747269
   15        7.953985
   16        9.494845
 
  0.2666667E+00  0.2000000E+00  0.0000000E+00  0.5333333E-01
    1      -14.634292
    2       -9.821620
    3       -7.612864
    4       -4.565603
    5        0.432969
    6        2.634833
    7        3.974261
    8        4.649714
    9        5.029634
   10        5.499344
   11        5.871799
   12        6.363973
   13        7.086583
   14        8.535584
   15        8.880529
   16        9.282919
 
  0.3333333E+00  0.2000000E+00  0.0000000E+00  0.5333333E-01
    1      -14.063481
    2      -10.550610
    3       -7.946616
    4       -3.967085
    5       -0.312004
    6        2.876751
    7        4.568890
    8        4.621137
    9        6.126179
   10        6.275321
   11        6.656932
   12        7.343980
   13        7.859288
   14        8.672477
   15        8.940381
   16        9.091344
 
  0.4000000E+00  0.2000000E+00  0.0000000E+00  0.2666667E-01
    1      -13.792866
    2      -10.881862
    3       -8.054536
    4       -3.683883
    5       -0.650651
    6        2.921153
    7        4.457494
    8        5.114910
    9        6.565513
   10        7.334080
   11        7.445726
   12        7.546075
   13        7.663839
   14        8.192106
   15        8.503874
   16        8.784457
 
  0.2666667E+00  0.2666667E+00  0.0000000E+00  0.2666667E-01
    1      -14.077333
    2      -10.280939
    3       -8.333249
    4       -3.974250
    5       -0.167426
    6        3.344355
    7        4.247427
    8        4.653420
    9        6.022522
   10        6.166281
   11        6.573238
   12        7.249893
   13        7.953519
   14        8.803428
   15        9.400277
   16        9.726635
 
  0.3333333E+00  0.2666667E+00  0.0000000E+00  0.5333333E-01
    1      -13.672308
    2      -10.621864
    3       -8.726506
    4       -3.536406
    5       -0.603745
    6        3.704189
    7        3.860700
    8        5.259121
    9        6.968369
   10        7.290300
   11        7.396272
   12        8.223684
   13        8.344474
   14        8.749672
   15        8.759831
   16        9.111207
 
  0.3333333E+00  0.3333333E+00  0.0000000E+00  0.8888889E-02
    1      -13.516518
    2      -10.597584
    3       -9.067138
    4       -3.357114
    5       -0.717503
    6        3.586432
    7        4.023577
    8        5.576248
    9        7.291542
   10        8.228462
   11        8.309551
   12        8.443471
   13        8.622785
   14        8.651422
   15        8.801297
   16        8.854473
