    2    2    1    1
  0.1490303E+02  0.3480218E-09  0.3480218E-09  0.3480219E-09  0.5000000E-15
  1.000000000000000E-004
  CAR 
 r-GeO2 ENCUT convergence test           
     18    120     14
 
  0.0000000E+00  0.0000000E+00  0.0000000E+00  0.2962963E-03
    1      -18.929911   1.000000
    2       -0.034783   1.000000
    3       -0.034779   1.000000
    4       -0.034778   1.000000
    5        1.417553   1.000000
    6        1.417554   1.000000
    7        1.417556   1.000000
    8        1.785083   1.000000
    9        1.785083   1.000000
   10        2.794909   1.000000
   11       18.610589   0.000000
   12       21.472055   0.000000
   13       21.472068   0.000000
   14       21.472195   0.000000
 
  0.6666667E-01  0.1843107E-17  0.4110050E-25  0.2370370E-02
    1      -18.922239   1.000000
    2       -0.201207   1.000000
    3       -0.122400   1.000000
    4       -0.122396   1.000000
    5        1.445532   1.000000
    6        1.445535   1.000000
    7        1.453289   1.000000
    8        1.881078   1.000000
    9        1.881078   1.000000
   10        3.004109   1.000000
   11       18.267849   0.000000
   12       20.282446   0.000000
   13       20.709031   0.000000
   14       20.709039   0.000000
 
  0.1333333E+00  0.5042234E-17  0.8043899E-25  0.2370370E-02
    1      -18.902387   1.000000
    2       -0.582165   1.000000
    3       -0.332164   1.000000
    4       -0.332161   1.000000
    5        1.517511   1.000000
    6        1.517515   1.000000
    7        1.535346   1.000000
    8        2.122694   1.000000
    9        2.122694   1.000000
   10        3.539459   0.000000
   11       17.025528   0.000000
   12       19.764053   0.000000
   13       19.764061   0.000000
   14       19.923029   0.000000
 
  0.2000000E+00  0.6933771E-17 -0.8525566E-25  0.2370370E-02
    1      -18.872943   1.000000
    2       -1.017544   1.000000
    3       -0.580669   1.000000
    4       -0.580666   1.000000
    5        1.618978   1.000000
    6        1.618982   1.000000
    7        1.645054   1.000000
    8        2.426315   1.000000
    9        2.426316   1.000000
   10        4.262463   0.000000
   11       15.387649   0.000000
   12       18.808727   0.000000
   13       18.808733   0.000000
   14       20.080142   0.000000
 
  0.2666667E+00  0.2260624E-16 -0.1206807E-24  0.2370370E-02
    1      -18.837804   1.000000
    2       -1.422589   1.000000
    3       -0.815541   1.000000
    4       -0.815539   1.000000
    5        1.735519   1.000000
    6        1.735522   1.000000
    7        1.774600   1.000000
    8        2.730439   1.000000
    9        2.730441   1.000000
   10        5.096793   0.000000
   11       13.738647   0.000000
   12       17.932288   0.000000
   13       17.932294   0.000000
   14       20.409653   0.000000
 
  0.3333333E+00  0.3840785E-16 -0.2992669E-25  0.2370370E-02
    1      -18.804871   1.000000
    2       -1.754407   1.000000
    3       -1.008758   1.000000
    4       -1.008756   1.000000
    5        1.848602   1.000000
    6        1.848605   1.000000
    7        1.907923   1.000000
    8        2.994655   1.000000
    9        2.994658   1.000000
   10        6.009293   0.000000
   11       12.183152   0.000000
   12       17.205780   0.000000
   13       17.205785   0.000000
   14       20.825191   0.000000
 
  0.4000000E+00  0.1386754E-16 -0.1705113E-24  0.2370370E-02
    1      -18.778381   1.000000
    2       -1.988011   1.000000
    3       -1.144655   1.000000
    4       -1.144653   1.000000
    5        1.938463   1.000000
    6        1.938466   1.000000
    7        2.020311   1.000000
    8        3.189571   0.999979
    9        3.189573   0.999979
   10        6.983688   0.000000
   11       10.766591   0.000000
   12       16.685967   0.000000
   13       16.685971   0.000000
   14       21.292846   0.000000
 
  0.4666667E+00 -0.1215793E-16  0.1807819E-24  0.2370370E-02
    1      -18.764045   1.000000
    2       -2.108446   1.000000
    3       -1.214577   1.000000
    4       -1.214576   1.000000
    5        1.988225   1.000000
    6        1.988229   1.000000
    7        2.085242   1.000000
    8        3.293161   0.877895
    9        3.293163   0.877880
   10        7.946845   0.000000
   11        9.577910   0.000000
   12       16.414569   0.000000
   13       16.414574   0.000000
   14       21.731162   0.000000
 
  0.6666667E-01  0.6666667E-01  0.1053658E-25  0.1777778E-02
    1      -18.920102   1.000000
    2       -0.346581   1.000000
    3       -0.083893   1.000000
    4       -0.083892   1.000000
    5        1.391184   1.000000
    6        1.492465   1.000000
    7        1.492466   1.000000
    8        1.798036   1.000000
    9        1.955840   1.000000
   10        3.097112   1.000000
   11       18.303355   0.000000
   12       20.079014   0.000000
   13       20.079020   0.000000
   14       20.742163   0.000000
 
  0.1333333E+00  0.6666667E-01 -0.5352252E-25  0.7111111E-02
    1      -18.904941   1.000000
    2       -0.647662   1.000000
    3       -0.234629   1.000000
    4       -0.203270   1.000000
    5        1.398323   1.000000
    6        1.572423   1.000000
    7        1.579180   1.000000
    8        1.909034   1.000000
    9        2.130616   1.000000
   10        3.548883   0.000000
   11       17.524551   0.000000
   12       19.220392   0.000000
   13       19.346224   0.000000
   14       20.380052   0.000000
 
  0.2000000E+00  0.6666667E-01 -0.8894755E-25  0.7111111E-02
    1      -18.879092   1.000000
    2       -0.995526   1.000000
    3       -0.501677   1.000000
    4       -0.418698   1.000000
    5        1.459734   1.000000
    6        1.667749   1.000000
    7        1.687822   1.000000
    8        2.159760   1.000000
    9        2.404464   1.000000
   10        4.201628   0.000000
   11       15.982473   0.000000
   12       18.523191   0.000000
   13       18.568749   0.000000
   14       20.399445   0.000000
 
  0.2666667E+00  0.6666667E-01 -0.1512446E-24  0.7111111E-02
    1      -18.846189   1.000000
    2       -1.344864   1.000000
    3       -0.769028   1.000000
    4       -0.658083   1.000000
    5        1.559713   1.000000
    6        1.776186   1.000000
    7        1.809299   1.000000
    8        2.461274   1.000000
    9        2.700436   1.000000
   10        4.976613   0.000000
   11       14.320072   0.000000
   12       17.780695   0.000000
   13       17.817272   0.000000
   14       20.630621   0.000000
 
  0.3333333E+00  0.6666667E-01  0.7129459E-24  0.7111111E-02
    1      -18.812951   1.000000
    2       -1.656146   1.000000
    3       -0.985449   1.000000
    4       -0.876797   1.000000
    5        1.684013   1.000000
    6        1.881029   1.000000
    7        1.928287   1.000000
    8        2.758306   1.000000
    9        2.958128   1.000000
   10        5.841358   0.000000
   11       12.730256   0.000000
   12       17.069462   0.000000
   13       17.164778   0.000000
   14       20.971226   0.000000
 
  0.4000000E+00  0.6666667E-01  0.5946398E-25  0.7111111E-02
    1      -18.784731   1.000000
    2       -1.896167   1.000000
    3       -1.134154   1.000000
    4       -1.050180   1.000000
    5        1.812513   1.000000
    6        1.961966   1.000000
    7        2.024493   1.000000
    8        3.014526   1.000000
    9        3.140280   1.000000
   10        6.782222   0.000000
   11       11.267294   0.000000
   12       16.488974   0.000000
   13       16.677098   0.000000
   14       21.380500   0.000000
 
  0.4666667E+00  0.6666667E-01 -0.2833092E-26  0.7111111E-02
    1      -18.766416   1.000000
    2       -2.041872   1.000000
    3       -1.209584   1.000000
    4       -1.164517   1.000000
    5        1.919583   1.000000
    6        2.002385   1.000000
    7        2.079186   1.000000
    8        3.201211   0.999917
    9        3.224528   0.999051
   10        7.774778   0.000000
   11        9.972176   0.000000
   12       16.103942   0.000000
   13       16.407031   0.000000
   14       21.850572   0.000000
 
 -0.4666667E+00  0.6666667E-01  0.4919340E-25  0.7111111E-02
    1      -18.761754   1.000000
    2       -2.080339   1.000000
    3       -1.212695   1.000000
    4       -1.210127   1.000000
    5        1.976988   1.000000
    6        1.993553   1.000000
    7        2.085412   1.000000
    8        3.201340   0.999916
    9        3.296444   0.858061
   10        8.327585   0.000000
   11        9.343725   0.000000
   12       15.949745   0.000000
   13       16.390104   0.000000
   14       22.270432   0.000000
 
 -0.4000000E+00  0.6666667E-01 -0.4266940E-24  0.7111111E-02
    1      -18.771032   1.000000
    2       -2.007920   1.000000
    3       -1.192240   1.000000
    4       -1.136841   1.000000
    5        1.936721   1.000000
    6        1.956469   1.000000
    7        2.058121   1.000000
    8        3.075046   1.000000
    9        3.288284   0.903622
   10        7.447791   0.000000
   11       10.375883   0.000000
   12       16.032970   0.000000
   13       16.640347   0.000000
   14       21.880666   0.000000
 
 -0.3333333E+00  0.6666667E-01  0.2061579E-24  0.7111111E-02
    1      -18.793020   1.000000
    2       -1.829551   1.000000
    3       -1.104723   1.000000
    4       -0.994041   1.000000
    5        1.842410   1.000000
    6        1.866880   1.000000
    7        2.002097   1.000000
    8        2.862394   1.000000
    9        3.177559   0.999995
   10        6.461244   0.000000
   11       11.737163   0.000000
   12       16.331572   0.000000
   13       17.148817   0.000000
   14       21.438359   0.000000
 
 -0.2666667E+00  0.6666667E-01 -0.2697295E-24  0.7111111E-02
    1      -18.823461   1.000000
    2       -1.558494   1.000000
    3       -0.955827   1.000000
    4       -0.791122   1.000000
    5        1.727823   1.000000
    6        1.750785   1.000000
    7        1.909283   1.000000
    8        2.590143   1.000000
    9        2.977215   1.000000
   10        5.536030   0.000000
   11       13.247657   0.000000
   12       16.799838   0.000000
   13       17.887259   0.000000
   14       21.060611   0.000000
 
 -0.2000000E+00  0.6666667E-01 -0.4354241E-24  0.7111111E-02
    1      -18.857276   1.000000
    2       -1.216579   1.000000
    3       -0.756421   1.000000
    4       -0.547313   1.000000
    5        1.612912   1.000000
    6        1.639868   1.000000
    7        1.790075   1.000000
    8        2.294517   1.000000
    9        2.709760   1.000000
   10        4.687200   0.000000
   11       14.868793   0.000000
   12       17.379783   0.000000
   13       18.812749   0.000000
   14       20.757610   0.000000
 
 -0.1333333E+00  0.6666667E-01 -0.1892905E-24  0.7111111E-02
    1      -18.888278   1.000000
    2       -0.835871   1.000000
    3       -0.525122   1.000000
    4       -0.302759   1.000000
    5        1.516893   1.000000
    6        1.549997   1.000000
    7        1.662895   1.000000
    8        2.030367   1.000000
    9        2.406311   1.000000
   10        3.935662   0.000000
   11       16.506311   0.000000
   12       18.048049   0.000000
   13       19.865055   0.000000
   14       20.547312   0.000000
 
 -0.6666667E-01  0.6666667E-01  0.8679094E-25  0.3555556E-02
    1      -18.911185   1.000000
    2       -0.465035   1.000000
    3       -0.294670   1.000000
    4       -0.135289   1.000000
    5        1.456271   1.000000
    6        1.479771   1.000000
    7        1.545296   1.000000
    8        1.881298   1.000000
    9        2.109574   1.000000
   10        3.333882   0.505082
   11       17.758814   0.000000
   12       19.058832   0.000000
   13       20.449300   0.000000
   14       20.867113   0.000000
 
  0.1333333E+00  0.1333333E+00  0.1063464E-24  0.1777778E-02
    1      -18.895541   1.000000
    2       -0.882211   1.000000
    3       -0.193346   1.000000
    4       -0.193345   1.000000
    5        1.317237   1.000000
    6        1.671506   1.000000
    7        1.671507   1.000000
    8        1.834760   1.000000
    9        2.126605   1.000000
   10        3.921281   0.000000
   11       17.733727   0.000000
   12       18.801184   0.000000
   13       18.801189   0.000000
   14       18.821037   0.000000
 
  0.2000000E+00  0.1333333E+00  0.1971004E-24  0.7111111E-02
    1      -18.874605   1.000000
    2       -1.136786   1.000000
    3       -0.345546   1.000000
    4       -0.311695   1.000000
    5        1.309504   1.000000
    6        1.755409   1.000000
    7        1.775064   1.000000
    8        1.963797   1.000000
    9        2.266595   1.000000
   10        4.483888   0.000000
   11       16.639433   0.000000
   12       17.693056   0.000000
   13       18.196618   0.000000
   14       19.123256   0.000000
 
  0.2666667E+00  0.1333333E+00 -0.2519149E-24  0.7111111E-02
    1      -18.846918   1.000000
    2       -1.377342   1.000000
    3       -0.608444   1.000000
    4       -0.507886   1.000000
    5        1.368555   1.000000
    6        1.842357   1.000000
    7        1.881889   1.000000
    8        2.213375   1.000000
    9        2.508998   1.000000
   10        5.160784   0.000000
   11       14.965103   0.000000
   12       16.980311   0.000000
   13       17.588656   0.000000
   14       19.697932   0.000000
 
  0.3333333E+00  0.1333333E+00 -0.2604679E-24  0.7111111E-02
    1      -18.816772   1.000000
    2       -1.590275   1.000000
    3       -0.873260   1.000000
    4       -0.722678   1.000000
    5        1.475500   1.000000
    6        1.933263   1.000000
    7        1.983204   1.000000
    8        2.501520   1.000000
    9        2.754431   1.000000
   10        5.932924   0.000000
   11       13.354431   0.000000
   12       16.322566   0.000000
   13       17.040230   0.000000
   14       20.269633   0.000000
 
  0.4000000E+00  0.1333333E+00  0.1655888E-24  0.7111111E-02
    1      -18.789278   1.000000
    2       -1.767165   1.000000
    3       -1.074321   1.000000
    4       -0.916387   1.000000
    5        1.613090   1.000000
    6        2.002950   1.000000
    7        2.060326   1.000000
    8        2.786016   1.000000
    9        2.935304   1.000000
   10        6.798940   0.000000
   11       11.873181   0.000000
   12       15.745923   0.000000
   13       16.613871   0.000000
   14       20.777410   0.000000
 
  0.4666667E+00  0.1333333E+00  0.8229842E-24  0.7111111E-02
    1      -18.769358   1.000000
    2       -1.895461   1.000000
    3       -1.184093   1.000000
    4       -1.066114   1.000000
    5        1.758946   1.000000
    6        2.033668   1.000000
    7        2.096252   1.000000
    8        3.016435   1.000000
    9        3.032337   1.000000
   10        7.758744   0.000000
   11       10.533615   0.000000
   12       15.299089   0.000000
   13       16.364504   0.000000
   14       21.230063   0.000000
 
 -0.4666667E+00  0.1333333E+00  0.1553182E-24  0.7111111E-02
    1      -18.760449   1.000000
    2       -1.958441   1.000000
    3       -1.199482   1.000000
    4       -1.159319   1.000000
    5        1.883924   1.000000
    6        2.017723   1.000000
    7        2.084786   1.000000
    8        2.987531   1.000000
    9        3.210457   0.999771
   10        8.747586   0.000000
   11        9.399008   0.000000
   12       15.022895   0.000000
   13       16.333151   0.000000
   14       21.680020   0.000000
 
 -0.4000000E+00  0.1333333E+00 -0.7341595E-24  0.7111111E-02
    1      -18.764347   1.000000
    2       -1.943254   1.000000
    3       -1.190063   1.000000
    4       -1.128239   1.000000
    5        1.942193   1.000000
    6        1.957514   1.000000
    7        2.050698   1.000000
    8        2.857899   1.000000
    9        3.297857   0.848891
   10        8.141346   0.000000
   11       10.086685   0.000000
   12       14.937617   0.000000
   13       16.541840   0.000000
   14       22.165553   0.000000
 
 -0.3333333E+00  0.1333333E+00 -0.2543586E-24  0.7111111E-02
    1      -18.780324   1.000000
    2       -1.846127   1.000000
    3       -1.157268   1.000000
    4       -0.982819   1.000000
    5        1.864150   1.000000
    6        1.885093   1.000000
    7        2.042604   1.000000
    8        2.652151   1.000000
    9        3.283295   0.925569
   10        7.134446   0.000000
   11       11.395529   0.000000
   12       15.037657   0.000000
   13       16.990301   0.000000
   14       22.459428   0.000000
 
 -0.2666667E+00  0.1333333E+00 -0.1636046E-24  0.7111111E-02
    1      -18.805100   1.000000
    2       -1.672045   1.000000
    3       -1.064032   1.000000
    4       -0.782721   1.000000
    5        1.754701   1.000000
    6        1.791003   1.000000
    7        2.001545   1.000000
    8        2.406926   1.000000
    9        3.168495   0.999999
   10        6.196380   0.000000
   11       12.850385   0.000000
   12       15.296363   0.000000
   13       17.654432   0.000000
   14       22.146666   0.000000
 
 -0.2000000E+00  0.1333333E+00  0.1876886E-24  0.7111111E-02
    1      -18.834989   1.000000
    2       -1.432547   1.000000
    3       -0.917828   1.000000
    4       -0.562244   1.000000
    5        1.648585   1.000000
    6        1.706941   1.000000
    7        1.909142   1.000000
    8        2.172701   1.000000
    9        2.966974   1.000000
   10        5.336499   0.000000
   11       14.427092   0.000000
   12       15.684296   0.000000
   13       18.480075   0.000000
   14       21.700745   0.000000
 
 -0.1333333E+00  0.1333333E+00 -0.8140362E-25  0.3555556E-02
    1      -18.864395   1.000000
    2       -1.144740   1.000000
    3       -0.731371   1.000000
    4       -0.378987   1.000000
    5        1.564244   1.000000
    6        1.628123   1.000000
    7        1.792004   1.000000
    8        2.022269   1.000000
    9        2.702191   1.000000
   10        4.569776   0.000000
   11       15.881899   0.000000
   12       16.387983   0.000000
   13       19.338737   0.000000
   14       21.167200   0.000000
 
  0.2000000E+00  0.2000000E+00 -0.1338665E-25  0.1777778E-02
    1      -18.860489   1.000000
    2       -1.305841   1.000000
    3       -0.303004   1.000000
    4       -0.303003   1.000000
    5        1.209966   1.000000
    6        1.874602   1.000000
    7        1.874604   1.000000
    8        1.889326   1.000000
    9        2.210021   1.000000
   10        4.952697   0.000000
   11       16.711903   0.000000
   12       17.205575   0.000000
   13       17.752797   0.000000
   14       17.752802   0.000000
 
  0.2666667E+00  0.2000000E+00 -0.7568372E-25  0.7111111E-02
    1      -18.839432   1.000000
    2       -1.456009   1.000000
    3       -0.437528   1.000000
    4       -0.401898   1.000000
    5        1.198024   1.000000
    6        1.917389   1.000000
    7        1.965708   1.000000
    8        2.045548   1.000000
    9        2.307516   1.000000
   10        5.526088   0.000000
   11       15.388061   0.000000
   12       16.373816   0.000000
   13       17.286652   0.000000
   14       18.244266   0.000000
 
  0.3333333E+00  0.2000000E+00 -0.4978270E-24  0.7111111E-02
    1      -18.814758   1.000000
    2       -1.571273   1.000000
    3       -0.680829   1.000000
    4       -0.570194   1.000000
    5        1.266424   1.000000
    6        1.993061   1.000000
    7        2.046423   1.000000
    8        2.269261   1.000000
    9        2.483992   1.000000
   10        6.188683   0.000000
   11       13.896850   0.000000
   12       15.617613   0.000000
   13       16.850912   0.000000
   14       18.970346   0.000000
 
  0.4000000E+00  0.2000000E+00  0.2880760E-24  0.7111111E-02
    1      -18.790956   1.000000
    2       -1.650540   1.000000
    3       -0.931538   1.000000
    4       -0.757716   1.000000
    5        1.389762   1.000000
    6        2.053787   1.000000
    7        2.104739   1.000000
    8        2.536448   1.000000
    9        2.644005   1.000000
   10        6.949589   0.000000
   11       12.494915   0.000000
   12       14.963314   0.000000
   13       16.500184   0.000000
   14       19.627375   0.000000
 
  0.4666667E+00  0.2000000E+00 -0.4939136E-24  0.7111111E-02
    1      -18.771471   1.000000
    2       -1.706887   1.000000
    3       -1.113671   1.000000
    4       -0.927825   1.000000
    5        1.545935   1.000000
    6        2.077033   1.000000
    7        2.125877   1.000000
    8        2.727559   1.000000
    9        2.808489   1.000000
   10        7.821232   0.000000
   11       11.215628   0.000000
   12       14.415084   0.000000
   13       16.284744   0.000000
   14       20.191671   0.000000
 
 -0.4666667E+00  0.2000000E+00 -0.5493752E-24  0.7111111E-02
    1      -18.760391   1.000000
    2       -1.758428   1.000000
    3       -1.179131   1.000000
    4       -1.058762   1.000000
    5        1.709395   1.000000
    6        2.057105   1.000000
    7        2.104968   1.000000
    8        2.713039   1.000000
    9        3.046064   1.000000
   10        8.809423   0.000000
   11       10.048166   0.000000
   12       14.007491   0.000000
   13       16.243580   0.000000
   14       20.714255   0.000000
 
 -0.4000000E+00  0.2000000E+00 -0.1443379E-24  0.7111111E-02
    1      -18.759170   1.000000
    2       -1.796961   1.000000
    3       -1.138799   1.000000
    4       -1.127483   1.000000
    5        1.847379   1.000000
    6        1.997935   1.000000
    7        2.053203   1.000000
    8        2.610632   1.000000
    9        3.216859   0.999554
   10        8.955668   0.000000
   11        9.932835   0.000000
   12       13.771571   0.000000
   13       16.399367   0.000000
   14       21.277406   0.000000
 
 -0.3333333E+00  0.2000000E+00 -0.3386666E-24  0.7111111E-02
    1      -18.768729   1.000000
    2       -1.793965   1.000000
    3       -1.162913   1.000000
    4       -0.995670   1.000000
    5        1.907544   1.000000
    6        1.910823   1.000000
    7        2.012475   1.000000
    8        2.453054   1.000000
    9        3.298301   0.845930
   10        7.944658   0.000000
   11       11.171443   0.000000
   12       13.716796   0.000000
   13       16.752562   0.000000
   14       21.935602   0.000000
 
 -0.2666667E+00  0.2000000E+00  0.1262660E-25  0.7111111E-02
    1      -18.786742   1.000000
    2       -1.732626   1.000000
    3       -1.130933   1.000000
    4       -0.826050   1.000000
    5        1.811910   1.000000
    6        1.870706   1.000000
    7        1.998800   1.000000
    8        2.292587   1.000000
    9        3.280197   0.937138
   10        6.995453   0.000000
   11       12.545447   0.000000
   12       13.828527   0.000000
   13       17.275581   0.000000
   14       22.685311   0.000000
 
 -0.2000000E+00  0.2000000E+00 -0.1463500E-24  0.3555556E-02
    1      -18.810345   1.000000
    2       -1.610172   1.000000
    3       -1.046679   1.000000
    4       -0.664986   1.000000
    5        1.719053   1.000000
    6        1.803745   1.000000
    7        1.956666   1.000000
    8        2.184398   1.000000
    9        3.165051   0.999999
   10        6.119192   0.000000
   11       14.016758   0.000000
   12       14.112571   0.000000
   13       17.898649   0.000000
   14       22.258317   0.000000
 
  0.2666667E+00  0.2666667E+00  0.1005475E-24  0.1777778E-02
    1      -18.825930   1.000000
    2       -1.526267   1.000000
    3       -0.380260   1.000000
    4       -0.380259   1.000000
    5        1.089103   1.000000
    6        1.952631   1.000000
    7        2.044309   1.000000
    8        2.044310   1.000000
    9        2.218047   1.000000
   10        5.991367   0.000000
   11       14.732629   0.000000
   12       16.790407   0.000000
   13       16.949864   0.000000
   14       16.949870   0.000000
 
  0.3333333E+00  0.2666667E+00  0.9199451E-25  0.7111111E-02
    1      -18.808407   1.000000
    2       -1.565297   1.000000
    3       -0.493509   1.000000
    4       -0.455608   1.000000
    5        1.084236   1.000000
    6        2.023596   1.000000
    7        2.106692   1.000000
    8        2.137739   1.000000
    9        2.254980   1.000000
   10        6.537886   0.000000
   11       13.739428   0.000000
   12       15.696031   0.000000
   13       16.622244   0.000000
   14       17.665691   0.000000
 
  0.4000000E+00  0.2666667E+00  0.4643072E-24  0.7111111E-02
    1      -18.789859   1.000000
    2       -1.566612   1.000000
    3       -0.719418   1.000000
    4       -0.598604   1.000000
    5        1.171907   1.000000
    6        2.101435   1.000000
    7        2.148518   1.000000
    8        2.310407   1.000000
    9        2.345912   1.000000
   10        7.178910   0.000000
   11       12.723075   0.000000
   12       14.694746   0.000000
   13       16.349537   0.000000
   14       18.440619   0.000000
 
  0.4666667E+00  0.2666667E+00  0.4216389E-25  0.7111111E-02
    1      -18.773201   1.000000
    2       -1.538161   1.000000
    3       -0.962028   1.000000
    4       -0.764927   1.000000
    5        1.317576   1.000000
    6        2.125032   1.000000
    7        2.158339   1.000000
    8        2.417082   1.000000
    9        2.560759   1.000000
   10        7.929920   0.000000
   11       11.754882   0.000000
   12       13.843709   0.000000
   13       16.174558   0.000000
   14       19.128487   0.000000
 
 -0.4666667E+00  0.2666667E+00 -0.7329902E-24  0.7111111E-02
    1      -18.761497   1.000000
    2       -1.520117   1.000000
    3       -1.130853   1.000000
    4       -0.919982   1.000000
    5        1.493338   1.000000
    6        2.105435   1.000000
    7        2.134995   1.000000
    8        2.427928   1.000000
    9        2.824303   1.000000
   10        8.779880   0.000000
   11       10.854614   0.000000
   12       13.165348   0.000000
   13       16.130308   0.000000
   14       19.748546   0.000000
 
 -0.4000000E+00  0.2666667E+00  0.3189330E-25  0.7111111E-02
    1      -18.756901   1.000000
    2       -1.582929   1.000000
    3       -1.138454   1.000000
    4       -1.042560   1.000000
    5        1.670761   1.000000
    6        2.051592   1.000000
    7        2.089848   1.000000
    8        2.378610   1.000000
    9        3.054973   1.000000
   10        9.424105   0.000000
   11       10.290129   0.000000
   12       12.708800   0.000000
   13       16.234557   0.000000
   14       20.374755   0.000000
 
 -0.3333333E+00  0.2666667E+00 -0.6525513E-24  0.7111111E-02
    1      -18.760063   1.000000
    2       -1.676720   1.000000
    3       -1.121205   1.000000
    4       -1.039102   1.000000
    5        1.819430   1.000000
    6        1.974889   1.000000
    7        2.036710   1.000000
    8        2.304271   1.000000
    9        3.220147   0.999380
   10        8.782368   0.000000
   11       11.113292   0.000000
   12       12.501783   0.000000
   13       16.485151   0.000000
   14       21.073595   0.000000
 
 -0.2666667E+00  0.2666667E+00 -0.4180916E-24  0.3555556E-02
    1      -18.770604   1.000000
    2       -1.733075   1.000000
    3       -1.150882   1.000000
    4       -0.919944   1.000000
    5        1.889850   1.000000
    6        1.922676   1.000000
    7        1.968009   1.000000
    8        2.265064   1.000000
    9        3.298365   0.845499
   10        7.877949   0.000000
   11       12.177053   0.000000
   12       12.660942   0.000000
   13       16.853078   0.000000
   14       21.863570   0.000000
 
  0.3333333E+00  0.3333333E+00  0.1607376E-24  0.1777778E-02
    1      -18.798617   1.000000
    2       -1.544320   1.000000
    3       -0.418768   1.000000
    4       -0.418766   1.000000
    5        0.975793   1.000000
    6        2.013875   1.000000
    7        2.130858   1.000000
    8        2.155026   1.000000
    9        2.155028   1.000000
   10        6.962728   0.000000
   11       13.007231   0.000000
   12       16.387900   0.000000
   13       16.387906   0.000000
   14       16.493408   0.000000
 
  0.4000000E+00  0.3333333E+00  0.2806922E-24  0.7111111E-02
    1      -18.785800   1.000000
    2       -1.497298   1.000000
    3       -0.516444   1.000000
    4       -0.475514   1.000000
    5        0.987633   1.000000
    6        2.094706   1.000000
    7        2.105751   1.000000
    8        2.186225   1.000000
    9        2.198204   1.000000
   10        7.476026   0.000000
   11       12.243677   0.000000
   12       15.276064   0.000000
   13       16.186798   0.000000
   14       17.298417   0.000000
 
  0.4666667E+00  0.3333333E+00 -0.1414511E-24  0.7111111E-02
    1      -18.773690   1.000000
    2       -1.425281   1.000000
    3       -0.736017   1.000000
    4       -0.602266   1.000000
    5        1.100603   1.000000
    6        2.121592   1.000000
    7        2.167116   1.000000
    8        2.202023   1.000000
    9        2.330764   1.000000
   10        8.091466   0.000000
   11       11.599899   0.000000
   12       14.152757   0.000000
   13       16.053213   0.000000
   14       18.100999   0.000000
 
 -0.4666667E+00  0.3333333E+00  0.3675441E-25  0.7111111E-02
    1      -18.763540   1.000000
    2       -1.340764   1.000000
    3       -0.990361   1.000000
    4       -0.758176   1.000000
    5        1.269758   1.000000
    6        2.129725   1.000000
    7        2.154546   1.000000
    8        2.204590   1.000000
    9        2.575233   1.000000
   10        8.786967   0.000000
   11       11.144926   0.000000
   12       13.065642   0.000000
   13       16.013771   0.000000
   14       18.827207   0.000000
 
 -0.4000000E+00  0.3333333E+00  0.2820141E-25  0.7111111E-02
    1      -18.756909   1.000000
    2       -1.325747   1.000000
    3       -1.159700   1.000000
    4       -0.909460   1.000000
    5        1.462784   1.000000
    6        2.109431   1.000000
    7        2.128545   1.000000
    8        2.191489   1.000000
    9        2.832874   1.000000
   10        9.394610   0.000000