    2    2    1    1
  0.1490303E+02  0.3480218E-09  0.3480218E-09  0.3480219E-09  0.5000000E-15
  1.000000000000000E-004
  CAR 
 AgF testing                             
     18     10     14
 
  0.0000000E+00  0.0000000E+00  0.0000000E+00  0.8000000E-02
    1      -19.141510   1.000000
    2       -0.176758   1.000000
    3       -0.176720   1.000000
    4       -0.176717   1.000000
    5        1.419554   1.000000
    6        1.419555   1.000000
    7        1.419557   1.000000
    8        1.789251   1.000000
    9        1.789251   1.000000
   10        2.766010   1.000000
   11       18.637705   0.000000
   12       21.495002   0.000000
   13       21.495015   0.000000
   14       21.495021   0.000000
 
  0.2000000E+00  0.6804626E-17  0.3283346E-24  0.6400000E-01
    1      -19.100436   1.000000
    2       -1.169450   1.000000
    3       -0.701425   1.000000
    4       -0.701398   1.000000
    5        1.619170   1.000000
    6        1.619174   1.000000
    7        1.630926   1.000000
    8        2.404128   1.000000
    9        2.404135   1.000000
   10        4.203637   0.000000
   11       15.405616   0.000000
   12       18.826849   0.000000
   13       18.826856   0.000000
   14       20.101118   0.000000
 
  0.4000000E+00  0.1360925E-16  0.6566693E-24  0.6400000E-01
    1      -19.012089   1.000000
    2       -2.117116   1.000000
    3       -1.259723   1.000000
    4       -1.259700   1.000000
    5        1.937748   1.000000
    6        1.937752   1.000000
    7        1.995264   1.000000
    8        3.152728   0.995990
    9        3.152740   0.995986
   10        6.952622   0.000000
   11       10.770864   0.000000
   12       16.693261   0.000000
   13       16.693270   0.000000
   14       21.303160   0.000000
 
  0.2000000E+00  0.2000000E+00  0.5532547E-24  0.4800000E-01
    1      -19.084935   1.000000
    2       -1.437378   1.000000
    3       -0.438915   1.000000
    4       -0.438893   1.000000
    5        1.212698   1.000000
    6        1.865142   1.000000
    7        1.865142   1.000000
    8        1.892992   1.000000
    9        2.196280   1.000000
   10        4.901913   0.000000
   11       16.711444   0.000000
   12       17.231375   0.000000
   13       17.790487   0.000000
   14       17.790491   0.000000
 
  0.4000000E+00  0.2000000E+00  0.1061512E-23  0.1920000E+00
    1      -19.008176   1.000000
    2       -1.749541   1.000000
    3       -1.044934   1.000000
    4       -0.870617   1.000000
    5        1.385460   1.000000
    6        2.053268   1.000000
    7        2.098114   1.000000
    8        2.517865   1.000000
    9        2.615752   1.000000
   10        6.936342   0.000000
   11       12.514534   0.000000
   12       14.986221   0.000000
   13       16.537491   0.000000
   14       19.663690   0.000000
 
 -0.4000000E+00  0.2000000E+00 -0.1174659E-24  0.1920000E+00
    1      -18.997685   1.000000
    2       -1.945003   1.000000
    3       -1.249267   1.000000
    4       -1.247370   1.000000
    5        1.840602   1.000000
    6        1.998101   1.000000
    7        2.026652   1.000000
    8        2.583618   1.000000
    9        3.184082   0.961171
   10        8.934867   0.000000
   11        9.922865   0.000000
   12       13.788074   0.000000
   13       16.420313   0.000000
   14       21.284305   0.000000
 
 -0.2000000E+00  0.2000000E+00 -0.1825675E-24  0.9600000E-01
    1      -19.034953   1.000000
    2       -1.716461   1.000000
    3       -1.171706   1.000000
    4       -0.785965   1.000000
    5        1.720345   1.000000
    6        1.780988   1.000000
    7        1.955238   1.000000
    8        2.174978   1.000000
    9        3.125925   0.999674
   10        6.085441   0.000000
   11       14.025686   0.000000
   12       14.142568   0.000000
   13       17.903842   0.000000
   14       22.283205   0.000000
 
  0.4000000E+00  0.4000000E+00  0.1106509E-23  0.4800000E-01
    1      -18.993921   1.000000
    2       -1.539035   1.000000
    3       -0.553465   1.000000
    4       -0.553443   1.000000
    5        0.892189   1.000000
    6        1.955477   1.000000
    7        2.065534   1.000000
    8        2.207652   1.000000
    9        2.207653   1.000000
   10        7.848356   0.000000
   11       11.613593   0.000000
   12       16.111507   0.000000
   13       16.111513   0.000000
   14       16.329433   0.000000
 
 -0.4000000E+00  0.4000000E+00 -0.3651350E-24  0.9600000E-01
    1      -19.005332   1.000000
    2       -1.398146   1.000000
    3       -1.167253   1.000000
    4       -0.888228   1.000000
    5        1.242103   1.000000
    6        2.018121   1.000000
    7        2.161272   1.000000
    8        2.173476   1.000000
    9        2.562191   1.000000
   10        9.205727   0.000000
   11       10.822555   0.000000
   12       12.791920   0.000000
   13       16.014050   0.000000
   14       18.748030   0.000000
 
 -0.4000000E+00  0.4000000E+00  0.2000000E+00  0.1920000E+00
    1      -18.992385   1.000000
    2       -1.577038   1.000000
    3       -1.204600   1.000000
    4       -1.023261   1.000000
    5        1.579948   1.000000
    6        1.904434   1.000000
    7        2.111496   1.000000
    8        2.193506   1.000000
    9        2.892468   1.000000
   10        8.873759   0.000000
   11       11.585772   0.000000
   12       12.636894   0.000000
   13       15.137789   0.000000
   14       21.022844   0.000000
