    2    2    1    1
  0.1490303E+02  0.3480218E-09  0.3480218E-09  0.3480219E-09  0.5000000E-15
  1.000000000000000E-004
  CAR 
 AgF testing                             
     18      3     14
 
  0.0000000E+00  0.0000000E+00  0.0000000E+00  0.1250000E+00
    1      -19.072295   1.000000
    2       -0.113546   1.000000
    3       -0.113491   1.000000
    4       -0.113489   1.000000
    5        1.160802   1.000000
    6        1.160802   1.000000
    7        1.160804   1.000000
    8        1.500522   1.000000
    9        1.500522   1.000000
   10        2.706300   1.000000
   11       18.560037   0.000000
   12       21.425289   0.000000
   13       21.425300   0.000000
   14       21.425323   0.000000
 
  0.5000000E+00  0.4428285E-16  0.6894027E-24  0.5000000E+00
    1      -18.906847   1.000000
    2       -2.231256   1.000000
    3       -1.344046   1.000000
    4       -1.344012   1.000000
    5        1.723341   1.000000
    6        1.723350   1.000000
    7        1.850319   1.000000
    8        3.078772   0.875086
    9        3.078801   0.874914
   10        8.135495   0.000000
   11        9.242864   0.000000
   12       16.329181   0.000000
   13       16.329297   0.000000
   14       21.720959   0.000000
 
  0.5000000E+00  0.5000000E+00  0.2563745E-23  0.3750000E+00
    1      -18.913495   1.000000
    2       -1.392099   1.000000
    3       -0.470631   1.000000
    4       -0.470598   1.000000
    5        0.599197   1.000000
    6        1.512971   1.000000
    7        1.797765   1.000000
    8        1.947738   1.000000
    9        1.947740   1.000000
   10        8.635726   0.000000
   11       10.377179   0.000000
   12       15.898839   0.000000
   13       15.898876   0.000000
   14       16.109904   0.000000
