PROCAR lm decomposed
# of k-points:  120         # of bands:   14         # of ions:    2

 k-point     1 :    0.00000000 0.00000000 0.00000000     weight = 0.00029630

band     1 # energy  -18.92991107 # occ.  2.00000000
 
ion      s     py     pz     px    dxy    dyz    dz2    dxz  x2-y2    tot
    1  0.012  0.000  0.000  0.000  0.000  0.000  0.000  0.000  0.000  0.012
    2  0.846  0.000  0.000  0.000  0.000  0.000  0.000  0.000  0.000  0.846
tot    0.858  0.000  0.000  0.000  0.000  0.000  0.000  0.000  0.000  0.858
 
band     2 # energy   -0.03478337 # occ.  2.00000000
 
ion      s     py     pz     px    dxy    dyz    dz2    dxz  x2-y2    tot
    1  0.000  0.002  0.006  0.003  0.000  0.000  0.000  0.000  0.000  0.011
    2  0.000  0.119  0.456  0.206  0.000  0.000  0.000  0.000  0.000  0.780
tot    0.000  0.120  0.462  0.208  0.000  0.000  0.000  0.000  0.000  0.791
 
band     3 # energy   -0.03477947 # occ.  2.00000000
 
ion      s     py     pz     px    dxy    dyz    dz2    dxz  x2-y2    tot
    1  0.000  0.007  0.000  0.003  0.000  0.000  0.000  0.000  0.000  0.011
    2  0.000  0.546  0.003  0.232  0.000  0.000  0.000  0.000  0.000  0.780
tot    0.000  0.553  0.003  0.235  0.000  0.000  0.000  0.000  0.000  0.791
 
band     4 # energy   -0.03477783 # occ.  2.00000000
 
ion      s     py     pz     px    dxy    dyz    dz2    dxz  x2-y2    tot
    1  0.000  0.002  0.004  0.005  0.000  0.000  0.000  0.000  0.000  0.011
    2  0.000  0.116  0.321  0.343  0.000  0.000  0.000  0.000  0.000  0.780
tot    0.000  0.118  0.326  0.348  0.000  0.000  0.000  0.000  0.000  0.791
 
band     5 # energy    1.41755340 # occ.  2.00000000
 
ion      s     py     pz     px    dxy    dyz    dz2    dxz  x2-y2    tot
    1  0.000  0.000  0.000  0.000  0.084  0.115  0.410  0.230  0.084  0.922
    2  0.000  0.000  0.000  0.000  0.000  0.000  0.000  0.000  0.000  0.000
tot    0.000  0.000  0.000  0.000  0.084  0.115  0.410  0.230  0.084  0.922
 
band     6 # energy    1.41755423 # occ.  2.00000000
 
ion      s     py     pz     px    dxy    dyz    dz2    dxz  x2-y2    tot
    1  0.000  0.000  0.000  0.000  0.132  0.007  0.008  0.015  0.759  0.922
    2  0.000  0.000  0.000  0.000  0.000  0.000  0.000  0.000  0.000  0.000
tot    0.000  0.000  0.000  0.000  0.132  0.007  0.008  0.015  0.759  0.922
 
band     7 # energy    1.41755638 # occ.  2.00000000
 
ion      s     py     pz     px    dxy    dyz    dz2    dxz  x2-y2    tot
    1  0.000  0.000  0.000  0.000  0.091  0.185  0.273  0.370  0.003  0.922
    2  0.000  0.000  0.000  0.000  0.000  0.000  0.000  0.000  0.000  0.000
tot    0.000  0.000  0.000  0.000  0.091  0.185  0.273  0.370  0.003  0.922
 
band     8 # energy    1.78508326 # occ.  2.00000000
 
ion      s     py     pz     px    dxy    dyz    dz2    dxz  x2-y2    tot
    1  0.000  0.000  0.000  0.000  0.001  0.631  0.000  0.316  0.000  0.948
    2  0.000  0.000  0.000  0.000  0.000  0.000  0.000  0.000  0.000  0.000
tot    0.000  0.000  0.000  0.000  0.001  0.631  0.000  0.316  0.000  0.948
 
band     9 # energy    1.78508336 # occ.  2.00000000
 
ion      s     py     pz     px    dxy    dyz    dz2    dxz  x2-y2    tot
    1  0.000  0.000  0.000  0.000  0.631  0.001  0.237  0.000  0.079  0.948
    2  0.000  0.000  0.000  0.000  0.000  0.000  0.000  0.000  0.000  0.000
tot    0.000  0.000  0.000  0.000  0.631  0.001  0.237  0.000  0.079  0.948
 
band    10 # energy    2.79490902 # occ.  2.00000000
 
ion      s     py     pz     px    dxy    dyz    dz2    dxz  x2-y2    tot
    1  0.416  0.000  0.000  0.000  0.000  0.000  0.000  0.000  0.000  0.416
    2  0.080  0.000  0.000  0.000  0.000  0.000  0.000  0.000  0.000  0.080
tot    0.496  0.000  0.000  0.000  0.000  0.000  0.000  0.000  0.000  0.496
 
band    11 # energy   18.61058894 # occ.  0.00000000
 
ion      s     py     pz     px    dxy    dyz    dz2    dxz  x2-y2    tot
    1  0.000  0.000  0.000  0.000  0.000  0.000  0.000  0.000  0.000  0.000
    2  0.000  0.000  0.000  0.000  0.000  0.000  0.000  0.000  0.000  0.000
tot    0.000  0.000  0.000  0.000  0.000  0.000  0.000  0.000  0.000  0.000
 
band    12 # energy   21.47205482 # occ.  0.00000000
 
ion      s     py     pz     px    dxy    dyz    dz2    dxz  x2-y2    tot
    1  0.000  0.000  0.000  0.000  0.008  0.062  0.082  0.124  0.059  0.336
    2  0.000  0.000  0.000  0.000  0.000  0.000  0.000  0.000  0.000  0.000
tot    0.000  0.000  0.000  0.000  0.008  0.062  0.082  0.124  0.059  0.336
 
band    13 # energy   21.47206793 # occ.  0.00000000
 
ion      s     py     pz     px    dxy    dyz    dz2    dxz  x2-y2    tot
    1  0.000  0.000  0.000  0.000  0.102  0.002  0.103  0.005  0.124  0.336
    2  0.000  0.000  0.000  0.000  0.000  0.000  0.000  0.000  0.000  0.000
tot    0.000  0.000  0.000  0.000  0.102  0.002  0.103  0.005  0.124  0.336
 
band    14 # energy   21.47219527 # occ.  0.00000000
 
ion      s     py     pz     px    dxy    dyz    dz2    dxz  x2-y2    tot
    1  0.000  0.000  0.000  0.000  0.002  0.048  0.066  0.095  0.125  0.336
    2  0.000  0.000  0.000  0.000  0.000  0.000  0.000  0.000  0.000  0.000
tot    0.000  0.000  0.000  0.000  0.002  0.048  0.066  0.095  0.125  0.336
 

 k-point     2 :    0.06666667 0.00000000 0.00000000     weight = 0.00237037

band     1 # energy  -18.92223868 # occ.  2.00000000
 
ion      s     py     pz     px    dxy    dyz    dz2    dxz  x2-y2    tot
    1  0.012  0.000  0.000  0.000  0.000  0.000  0.000  0.000  0.000  0.012
    2  0.847  0.000  0.000  0.000  0.000  0.000  0.000  0.000  0.000  0.847
tot    0.858  0.000  0.000  0.000  0.000  0.000  0.000  0.000  0.000  0.859
 
band     2 # energy   -0.20120721 # occ.  2.00000000
 
ion      s     py     pz     px    dxy    dyz    dz2    dxz  x2-y2    tot
    1  0.020  0.001  0.000  0.008  0.006  0.000  0.005  0.000  0.009  0.048
    2  0.003  0.080  0.000  0.643  0.000  0.000  0.000  0.000  0.000  0.726
tot    0.022  0.081  0.000  0.651  0.006  0.000  0.005  0.000  0.009  0.774
 
band     3 # energy   -0.12239999 # occ.  2.00000000
 
ion      s     py     pz     px    dxy    dyz    dz2    dxz  x2-y2    tot
    1  0.000  0.003  0.006  0.000  0.008  0.026  0.009  0.002  0.000  0.055
    2  0.000  0.244  0.465  0.031  0.000  0.000  0.000  0.000  0.000  0.740
tot    0.000  0.248  0.470  0.031  0.008  0.026  0.009  0.002  0.000  0.794
 
band     4 # energy   -0.12239586 # occ.  2.00000000
 
ion      s     py     pz     px    dxy    dyz    dz2    dxz  x2-y2    tot
    1  0.000  0.005  0.004  0.001  0.014  0.016  0.014  0.001  0.000  0.055
    2  0.000  0.413  0.275  0.052  0.000  0.000  0.000  0.000  0.000  0.740
tot    0.000  0.418  0.279  0.052  0.014  0.016  0.014  0.001  0.000  0.794
 
band     5 # energy    1.44553165 # occ.  2.00000000
 
ion      s     py     pz     px    dxy    dyz    dz2    dxz  x2-y2    tot
    1  0.000  0.000  0.000  0.000  0.035  0.084  0.289  0.211  0.302  0.920
    2  0.000  0.003  0.001  0.000  0.000  0.000  0.000  0.000  0.000  0.004
tot    0.000  0.003  0.001  0.000  0.035  0.084  0.289  0.211  0.302  0.924
 
band     6 # energy    1.44553458 # occ.  2.00000000
 
ion      s     py     pz     px    dxy    dyz    dz2    dxz  x2-y2    tot
    1  0.000  0.000  0.000  0.000  0.016  0.178  0.136  0.448  0.142  0.920
    2  0.000  0.001  0.003  0.000  0.000  0.000  0.000  0.000  0.000  0.004
tot    0.000  0.001  0.003  0.000  0.016  0.178  0.136  0.448  0.142  0.924
 
band     7 # energy    1.45328893 # occ.  2.00000000
 
ion      s     py     pz     px    dxy    dyz    dz2    dxz  x2-y2    tot
    1  0.001  0.000  0.000  0.000  0.267  0.000  0.225  0.000  0.409  0.902
    2  0.000  0.002  0.000  0.017  0.000  0.000  0.000  0.000  0.000  0.019
tot    0.001  0.002  0.000  0.017  0.267  0.000  0.225  0.000  0.409  0.921
 
band     8 # energy    1.88107795 # occ.  2.00000000
 
ion      s     py     pz     px    dxy    dyz    dz2    dxz  x2-y2    tot
    1  0.000  0.000  0.001  0.000  0.020  0.616  0.008  0.262  0.002  0.909
    2  0.000  0.001  0.036  0.000  0.000  0.000  0.000  0.000  0.000  0.037
tot    0.000  0.001  0.037  0.000  0.020  0.616  0.008  0.262  0.002  0.946
 
band     9 # energy    1.88107817 # occ.  2.00000000
 
ion      s     py     pz     px    dxy    dyz    dz2    dxz  x2-y2    tot
    1  0.000  0.001  0.000  0.000  0.574  0.021  0.243  0.009  0.061  0.909
    2  0.000  0.032  0.001  0.004  0.000  0.000  0.000  0.000  0.000  0.037
tot    0.000  0.033  0.001  0.004  0.574  0.021  0.243  0.009  0.061  0.946
 
band    10 # energy    3.00410915 # occ.  2.00000000
 
ion      s     py     pz     px    dxy    dyz    dz2    dxz  x2-y2    tot
    1  0.394  0.001  0.000  0.005  0.000  0.000  0.000  0.000  0.000  0.399
    2  0.076  0.004  0.000  0.034  0.000  0.000  0.000  0.000  0.000  0.114
tot    0.469  0.005  0.000  0.039  0.000  0.000  0.000  0.000  0.000  0.513
 
band    11 # energy   18.26784922 # occ.  0.00000000
 
ion      s     py     pz     px    dxy    dyz    dz2    dxz  x2-y2    tot
    1  0.001  0.003  0.000  0.026  0.018  0.000  0.015  0.000  0.028  0.091
    2  0.000  0.000  0.000  0.003  0.000  0.000  0.000  0.000  0.000  0.003
tot    0.001  0.004  0.000  0.029  0.018  0.000  0.015  0.000  0.028  0.095
 
band    12 # energy   20.28244609 # occ.  0.00000000
 
ion      s     py     pz     px    dxy    dyz    dz2    dxz  x2-y2    tot
    1  0.014  0.042  0.000  0.339  0.021  0.000  0.018  0.000  0.033  0.467
    2  0.001  0.004  0.000  0.029  0.000  0.000  0.000  0.000  0.000  0.033
tot    0.014  0.046  0.000  0.368  0.021  0.000  0.018  0.000  0.033  0.500
 
band    13 # energy   20.70903078 # occ.  0.00000000
 
ion      s     py     pz     px    dxy    dyz    dz2    dxz  x2-y2    tot
    1  0.000  0.093  0.266  0.012  0.004  0.021  0.016  0.085  0.022  0.520
    2  0.000  0.006  0.019  0.001  0.000  0.000  0.000  0.000  0.000  0.026
tot    0.000  0.100  0.285  0.012  0.004  0.021  0.016  0.085  0.022  0.546
 
band    14 # energy   20.70903930 # occ.  0.00000000
 
ion      s     py     pz     px    dxy    dyz    dz2    dxz  x2-y2    tot
    1  0.000  0.237  0.105  0.030  0.010  0.008  0.042  0.034  0.055  0.520
    2  0.000  0.016  0.007  0.002  0.000  0.000  0.000  0.000  0.000  0.026
tot    0.000  0.253  0.112  0.032  0.010  0.008  0.042  0.034  0.055  0.546
 

 k-point     3 :    0.13333333 0.00000000 0.00000000     weight = 0.00237037

band     1 # energy  -18.90238667 # occ.  2.00000000
 
ion      s     py     pz     px    dxy    dyz    dz2    dxz  x2-y2    tot
    1  0.010  0.000  0.000  0.001  0.000  0.000  0.000  0.000  0.000  0.011
    2  0.848  0.000  0.000  0.000  0.000  0.000  0.000  0.000  0.000  0.848
tot    0.858  0.000  0.000  0.001  0.000  0.000  0.000  0.000  0.000  0.859
 
band     2 # energy   -0.58216531 # occ.  2.00000000
 
ion      s     py     pz     px    dxy    dyz    dz2    dxz  x2-y2    tot
    1  0.050  0.001  0.000  0.005  0.015  0.000  0.013  0.000  0.023  0.106
    2  0.006  0.070  0.000  0.563  0.000  0.000  0.000  0.000  0.000  0.639
tot    0.056  0.071  0.000  0.568  0.015  0.000  0.013  0.000  0.023  0.745
 
band     3 # energy   -0.33216385 # occ.  2.00000000
 
ion      s     py     pz     px    dxy    dyz    dz2    dxz  x2-y2    tot
    1  0.000  0.002  0.005  0.000  0.021  0.078  0.021  0.006  0.000  0.133
    2  0.000  0.198  0.443  0.025  0.000  0.000  0.000  0.000  0.000  0.666
tot    0.000  0.200  0.448  0.025  0.021  0.078  0.021  0.006  0.000  0.799
 
band     4 # energy   -0.33216050 # occ.  2.00000000
 
ion      s     py     pz     px    dxy    dyz    dz2    dxz  x2-y2    tot
    1  0.000  0.004  0.002  0.001  0.041  0.039  0.042  0.003  0.000  0.133
    2  0.000  0.394  0.223  0.049  0.000  0.000  0.000  0.000  0.000  0.666
tot    0.000  0.398  0.225  0.050  0.041  0.039  0.042  0.003  0.000  0.799
 
band     5 # energy    1.51751130 # occ.  2.00000000
 
ion      s     py     pz     px    dxy    dyz    dz2    dxz  x2-y2    tot
    1  0.000  0.000  0.000  0.000  0.053  0.067  0.256  0.231  0.314  0.920
    2  0.000  0.005  0.003  0.001  0.000  0.000  0.000  0.000  0.000  0.008
tot    0.000  0.005  0.003  0.001  0.053  0.067  0.256  0.231  0.314  0.928
 
band     6 # energy    1.51751469 # occ.  2.00000000
 
ion      s     py     pz     px    dxy    dyz    dz2    dxz  x2-y2    tot
    1  0.000  0.000  0.000  0.000  0.025  0.139  0.122  0.483  0.150  0.920
    2  0.000  0.002  0.005  0.000  0.000  0.000  0.000  0.000  0.000  0.008
tot    0.000  0.002  0.005  0.000  0.025  0.139  0.122  0.483  0.150  0.928
 
band     7 # energy    1.53534641 # occ.  2.00000000
 
ion      s     py     pz     px    dxy    dyz    dz2    dxz  x2-y2    tot
    1  0.004  0.000  0.000  0.000  0.257  0.000  0.217  0.000  0.394  0.873
    2  0.001  0.005  0.000  0.040  0.000  0.000  0.000  0.000  0.000  0.046
tot    0.005  0.005  0.000  0.040  0.257  0.000  0.217  0.000  0.394  0.919
 
band     8 # energy    2.12269359 # occ.  2.00000000
 
ion      s     py     pz     px    dxy    dyz    dz2    dxz  x2-y2    tot
    1  0.000  0.000  0.002  0.000  0.131  0.466  0.064  0.160  0.011  0.835
    2  0.000  0.024  0.082  0.003  0.000  0.000  0.000  0.000  0.000  0.110
tot    0.000  0.025  0.084  0.003  0.131  0.466  0.064  0.160  0.011  0.944
 
band     9 # energy    2.12269419 # occ.  2.00000000
 
ion      s     py     pz     px    dxy    dyz    dz2    dxz  x2-y2    tot
    1  0.000  0.001  0.001  0.000  0.398  0.153  0.195  0.053  0.033  0.835
    2  0.000  0.073  0.027  0.009  0.000  0.000  0.000  0.000  0.000  0.110
tot    0.000  0.075  0.028  0.009  0.398  0.153  0.195  0.053  0.033  0.944
 
band    10 # energy    3.53945919 # occ.  0.00000001
 
ion      s     py     pz     px    dxy    dyz    dz2    dxz  x2-y2    tot
    1  0.353  0.002  0.000  0.016  0.000  0.000  0.000  0.000  0.000  0.371
    2  0.068  0.011  0.000  0.091  0.000  0.000  0.000  0.000  0.000  0.170
tot    0.420  0.013  0.000  0.107  0.000  0.000  0.000  0.000  0.000  0.541
 
band    11 # energy   17.02552762 # occ.  0.00000000
 
ion      s     py     pz     px    dxy    dyz    dz2    dxz  x2-y2    tot
    1  0.018  0.018  0.000  0.144  0.034  0.000  0.029  0.000  0.053  0.296
    2  0.001  0.003  0.000  0.020  0.000  0.000  0.000  0.000  0.000  0.024
tot    0.019  0.021  0.000  0.164  0.034  0.000  0.029  0.000  0.053  0.319
 
band    12 # energy   19.76405350 # occ.  0.00000000
 
ion      s     py     pz     px    dxy    dyz    dz2    dxz  x2-y2    tot
    1  0.000  0.106  0.300  0.013  0.005  0.008  0.009  0.069  0.016  0.527
    2  0.000  0.006  0.017  0.001  0.000  0.000  0.000  0.000  0.000  0.024
tot    0.000  0.112  0.318  0.014  0.005  0.008  0.009  0.069  0.016  0.551
 
band    13 # energy   19.76406075 # occ.  0.00000000
 
ion      s     py     pz     px    dxy    dyz    dz2    dxz  x2-y2    tot
    1  0.000  0.267  0.119  0.033  0.014  0.003  0.022  0.027  0.041  0.527
    2  0.000  0.015  0.007  0.002  0.000  0.000  0.000  0.000  0.000  0.024
tot    0.000  0.282  0.126  0.035  0.014  0.003  0.022  0.027  0.041  0.551
 
band    14 # energy   19.92302869 # occ.  0.00000000
 
ion      s     py     pz     px    dxy    dyz    dz2    dxz  x2-y2    tot
    1  0.039  0.030  0.000  0.242  0.000  0.000  0.000  0.000  0.000  0.312
    2  0.002  0.003  0.000  0.022  0.000  0.000  0.000  0.000  0.000  0.026
tot    0.041  0.033  0.000  0.263  0.000  0.000  0.000  0.000  0.000  0.338
 

 k-point     4 :    0.20000000 0.00000000-0.00000000     weight = 0.00237037

band     1 # energy  -18.87294325 # occ.  2.00000000
 
ion      s     py     pz     px    dxy    dyz    dz2    dxz  x2-y2    tot
    1  0.008  0.000  0.000  0.002  0.000  0.000  0.000  0.000  0.000  0.010
    2  0.851  0.000  0.000  0.000  0.000  0.000  0.000  0.000  0.000  0.851
tot    0.859  0.000  0.000  0.002  0.000  0.000  0.000  0.000  0.000  0.861
 
band     2 # energy   -1.01754390 # occ.  2.00000000
 
ion      s     py     pz     px    dxy    dyz    dz2    dxz  x2-y2    tot
    1  0.071  0.000  0.000  0.002  0.022  0.000  0.018  0.000  0.033  0.147
    2  0.006  0.063  0.000  0.504  0.000  0.000  0.000  0.000  0.000  0.574
tot    0.078  0.063  0.000  0.507  0.022  0.000  0.018  0.000  0.033  0.721
 
band     3 # energy   -0.58066888 # occ.  2.00000000
 
ion      s     py     pz     px    dxy    dyz    dz2    dxz  x2-y2    tot
    1  0.000  0.001  0.004  0.000  0.027  0.126  0.027  0.010  0.000  0.195
    2  0.000  0.154  0.432  0.019  0.000  0.000  0.000  0.000  0.000  0.606
tot    0.000  0.155  0.436  0.019  0.027  0.126  0.027  0.010  0.000  0.801
 
band     4 # energy   -0.58066617 # occ.  2.00000000
 
ion      s     py     pz     px    dxy    dyz    dz2    dxz  x2-y2    tot
    1  0.000  0.003  0.001  0.000  0.068  0.050  0.068  0.004  0.000  0.195
    2  0.000  0.384  0.173  0.048  0.000  0.000  0.000  0.000  0.000  0.606
tot    0.000  0.387  0.175  0.048  0.068  0.050  0.068  0.004  0.000  0.801
 
band     5 # energy    1.61897817 # occ.  2.00000000
 
ion      s     py     pz     px    dxy    dyz    dz2    dxz  x2-y2    tot
    1  0.000  0.000  0.000  0.000  0.062  0.060  0.240  0.243  0.320  0.925
    2  0.000  0.006  0.003  0.001  0.000  0.000  0.000  0.000  0.000  0.010
tot    0.000  0.006  0.003  0.001  0.062  0.060  0.240  0.243  0.320  0.935
 
band     6 # energy    1.61898175 # occ.  2.00000000
 
ion      s     py     pz     px    dxy    dyz    dz2    dxz  x2-y2    tot
    1  0.000  0.000  0.000  0.000  0.030  0.123  0.117  0.500  0.155  0.925
    2  0.000  0.003  0.006  0.000  0.000  0.000  0.000  0.000  0.000  0.010
tot    0.000  0.003  0.007  0.000  0.030  0.123  0.117  0.500  0.155  0.935
 
band     7 # energy    1.64505387 # occ.  2.00000000
 
ion      s     py     pz     px    dxy    dyz    dz2    dxz  x2-y2    tot
    1  0.007  0.000  0.000  0.000  0.250  0.000  0.211  0.000  0.382  0.850
    2  0.001  0.008  0.000  0.060  0.000  0.000  0.000  0.000  0.000  0.069
tot    0.008  0.008  0.000  0.061  0.250  0.000  0.211  0.000  0.382  0.919
 
band     8 # energy    2.42631496 # occ.  2.00000000
 
ion      s     py     pz     px    dxy    dyz    dz2    dxz  x2-y2    tot
    1  0.000  0.001  0.002  0.000  0.180  0.369  0.093  0.116  0.013  0.775
    2  0.000  0.057  0.108  0.007  0.000  0.000  0.000  0.000  0.000  0.172
tot    0.000  0.058  0.110  0.007  0.180  0.369  0.093  0.116  0.013  0.947
 
band     9 # energy    2.42631612 # occ.  2.00000000
 
ion      s     py     pz     px    dxy    dyz    dz2    dxz  x2-y2    tot
    1  0.000  0.002  0.001  0.000  0.305  0.218  0.158  0.069  0.023  0.775
    2  0.000  0.096  0.064  0.012  0.000  0.000  0.000  0.000  0.000  0.172
tot    0.000  0.098  0.065  0.012  0.305  0.218  0.158  0.069  0.023  0.947
 
band    10 # energy    4.26246287 # occ.  0.00000000
 
ion      s     py     pz     px    dxy    dyz    dz2    dxz  x2-y2    tot
    1  0.316  0.004  0.000  0.033  0.000  0.000  0.000  0.000  0.000  0.353
    2  0.060  0.016  0.000  0.130  0.000  0.000  0.000  0.000  0.000  0.206
tot    0.376  0.020  0.000  0.163  0.000  0.000  0.000  0.000  0.000  0.559
 
band    11 # energy   15.38764895 # occ.  0.00000000
 
ion      s     py     pz     px    dxy    dyz    dz2    dxz  x2-y2    tot
    1  0.053  0.024  0.000  0.196  0.031  0.000  0.026  0.000  0.048  0.378
    2  0.002  0.005  0.000  0.038  0.000  0.000  0.000  0.000  0.000  0.045
tot    0.055  0.029  0.000  0.234  0.031  0.000  0.026  0.000  0.048  0.424
 
band    12 # energy   18.80872676 # occ.  0.00000000
 
ion      s     py     pz     px    dxy    dyz    dz2    dxz  x2-y2    tot
    1  0.000  0.109  0.316  0.014  0.005  0.002  0.004  0.052  0.012  0.516
    2  0.000  0.005  0.013  0.001  0.000  0.000  0.000  0.000  0.000  0.019
tot    0.000  0.114  0.330  0.014  0.005  0.002  0.004  0.052  0.012  0.534
 
band    13 # energy   18.80873293 # occ.  0.00000000
 
ion      s     py     pz     px    dxy    dyz    dz2    dxz  x2-y2    tot
    1  0.000  0.281  0.123  0.035  0.014  0.001  0.011  0.020  0.030  0.516
    2  0.000  0.012  0.005  0.001  0.000  0.000  0.000  0.000  0.000  0.019
tot    0.000  0.293  0.128  0.037  0.014  0.001  0.011  0.020  0.030  0.534
 
band    14 # energy   20.08014188 # occ.  0.00000000
 
ion      s     py     pz     px    dxy    dyz    dz2    dxz  x2-y2    tot
    1  0.066  0.021  0.000  0.167  0.006  0.000  0.005  0.000  0.009  0.273
    2  0.004  0.002  0.000  0.014  0.000  0.000  0.000  0.000  0.000  0.019
tot    0.070  0.023  0.000  0.181  0.006  0.000  0.005  0.000  0.009  0.292
 

 k-point     5 :    0.26666667 0.00000000-0.00000000     weight = 0.00237037

band     1 # energy  -18.83780426 # occ.  2.00000000
 
ion      s     py     pz     px    dxy    dyz    dz2    dxz  x2-y2    tot
    1  0.005  0.000  0.000  0.003  0.000  0.000  0.000  0.000  0.000  0.008
    2  0.855  0.000  0.000  0.000  0.000  0.000  0.000  0.000  0.000  0.855
tot    0.860  0.000  0.000  0.003  0.000  0.000  0.000  0.000  0.000  0.863
 
band     2 # energy   -1.42258946 # occ.  2.00000000
 
ion      s     py     pz     px    dxy    dyz    dz2    dxz  x2-y2    tot
    1  0.084  0.000  0.000  0.001  0.027  0.000  0.022  0.000  0.041  0.175
    2  0.005  0.058  0.000  0.465  0.000  0.000  0.000  0.000  0.000  0.528
tot    0.089  0.058  0.000  0.466  0.027  0.000  0.022  0.000  0.041  0.703
 
band     3 # energy   -0.81554110 # occ.  2.00000000
 
ion      s     py     pz     px    dxy    dyz    dz2    dxz  x2-y2    tot
    1  0.000  0.001  0.002  0.000  0.027  0.165  0.027  0.014  0.000  0.237
    2  0.000  0.118  0.432  0.015  0.000  0.000  0.000  0.000  0.000  0.564
tot    0.000  0.118  0.434  0.015  0.027  0.165  0.027  0.014  0.000  0.801
 
band     4 # energy   -0.81553883 # occ.  2.00000000
 
ion      s     py     pz     px    dxy    dyz    dz2    dxz  x2-y2    tot
    1  0.000  0.002  0.001  0.000  0.090  0.051  0.089  0.004  0.000  0.237
    2  0.000  0.384  0.132  0.048  0.000  0.000  0.000  0.000  0.000  0.564
tot    0.000  0.386  0.133  0.048  0.090  0.051  0.089  0.004  0.000  0.801
 
band     5 # energy    1.73551857 # occ.  2.00000000
 
ion      s     py     pz     px    dxy    dyz    dz2    dxz  x2-y2    tot
    1  0.000  0.000  0.000  0.000  0.066  0.058  0.236  0.249  0.323  0.932
    2  0.000  0.007  0.004  0.001  0.000  0.000  0.000  0.000  0.000  0.011
tot    0.000  0.007  0.004  0.001  0.066  0.058  0.236  0.249  0.323  0.943
 
band     6 # energy    1.73552218 # occ.  2.00000000
 
ion      s     py     pz     px    dxy    dyz    dz2    dxz  x2-y2    tot
    1  0.000  0.000  0.000  0.000  0.032  0.118  0.116  0.506  0.159  0.932
    2  0.000  0.003  0.008  0.000  0.000  0.000  0.000  0.000  0.000  0.011
tot    0.000  0.003  0.008  0.000  0.032  0.118  0.116  0.506  0.159  0.943
 
band     7 # energy    1.77460000 # occ.  2.00000000
 
ion      s     py     pz     px    dxy    dyz    dz2    dxz  x2-y2    tot
    1  0.007  0.000  0.000  0.001  0.244  0.000  0.206  0.000  0.374  0.832
    2  0.001  0.010  0.000  0.081  0.000  0.000  0.000  0.000  0.000  0.092
tot    0.008  0.010  0.000  0.081  0.244  0.000  0.206  0.000  0.374  0.924
 
band     8 # energy    2.73043910 # occ.  2.00000000
 
ion      s     py     pz     px    dxy    dyz    dz2    dxz  x2-y2    tot
    1  0.000  0.001  0.002  0.000  0.197  0.318  0.102  0.101  0.015  0.737
    2  0.000  0.082  0.123  0.010  0.000  0.000  0.000  0.000  0.000  0.216
tot    0.000  0.083  0.125  0.010  0.197  0.318  0.102  0.101  0.015  0.952
 
band     9 # energy    2.73044081 # occ.  2.00000000
 
ion      s     py     pz     px    dxy    dyz    dz2    dxz  x2-y2    tot
    1  0.000  0.001  0.001  0.000  0.264  0.238  0.136  0.076  0.020  0.737
    2  0.000  0.110  0.092  0.014  0.000  0.000  0.000  0.000  0.000  0.216
tot    0.000  0.111  0.093  0.014  0.264  0.238  0.136  0.076  0.020  0.952
 
band    10 # energy    5.09679341 # occ.  0.00000000
 
ion      s     py     pz     px    dxy    dyz    dz2    dxz  x2-y2    tot
    1  0.284  0.007  0.000  0.055  0.000  0.000  0.000  0.000  0.000  0.346
    2  0.053  0.018  0.000  0.145  0.000  0.000  0.000  0.000  0.000  0.217
tot    0.337  0.025  0.000  0.200  0.000  0.000  0.000  0.000  0.000  0.563
 
band    11 # energy   13.73864679 # occ.  0.00000000
 
ion      s     py     pz     px    dxy    dyz    dz2    dxz  x2-y2    tot
    1  0.097  0.025  0.000  0.200  0.025  0.000  0.021  0.000  0.039  0.406
    2  0.004  0.007  0.000  0.058  0.000  0.000  0.000  0.000  0.000  0.069
tot    0.101  0.032  0.000  0.257  0.025  0.000  0.021  0.000  0.039  0.476
 
band    12 # energy   17.93228820 # occ.  0.00000000
 
ion      s     py     pz     px    dxy    dyz    dz2    dxz  x2-y2    tot
    1  0.000  0.112  0.322  0.014  0.004  0.001  0.002  0.035  0.008  0.498
    2  0.000  0.003  0.009  0.000  0.000  0.000  0.000  0.000  0.000  0.012
tot    0.000  0.115  0.331  0.014  0.004  0.001  0.002  0.035  0.008  0.511
 
band    13 # energy   17.93229359 # occ.  0.00000000
 
ion      s     py     pz     px    dxy    dyz    dz2    dxz  x2-y2    tot
    1  0.000  0.286  0.126  0.036  0.011  0.000  0.006  0.014  0.019  0.498
    2  0.000  0.008  0.003  0.001  0.000  0.000  0.000  0.000  0.000  0.012
tot    0.000  0.294  0.130  0.037  0.011  0.000  0.006  0.014  0.019  0.511
 
band    14 # energy   20.40965292 # occ.  0.00000000
 
ion      s     py     pz     px    dxy    dyz    dz2    dxz  x2-y2    tot
    1  0.095  0.014  0.000  0.116  0.017  0.000  0.014  0.000  0.026  0.282
    2  0.006  0.001  0.000  0.008  0.000  0.000  0.000  0.000  0.000  0.015
tot    0.101  0.015  0.000  0.123  0.017  0.000  0.014  0.000  0.026  0.297
 

 k-point     6 :    0.33333333 0.00000000-0.00000000     weight = 0.00237037

band     1 # energy  -18.80487054 # occ.  2.00000000
 
ion      s     py     pz     px    dxy    dyz    dz2    dxz  x2-y2    tot
    1  0.003  0.000  0.000  0.004  0.000  0.000  0.000  0.000  0.000  0.007
    2  0.858  0.000  0.000  0.000  0.000  0.000  0.000  0.000  0.000  0.858
tot    0.861  0.000  0.000  0.004  0.000  0.000  0.000  0.000  0.000  0.865
 
band     2 # energy   -1.75440719 # occ.  2.00000000
 
ion      s     py     pz     px    dxy    dyz    dz2    dxz  x2-y2    tot
    1  0.091  0.000  0.000  0.000  0.030  0.000  0.026  0.000  0.046  0.194
    2  0.003  0.055  0.000  0.439  0.000  0.000  0.000  0.000  0.000  0.497
tot    0.094  0.055  0.000  0.440  0.030  0.000  0.026  0.000  0.046  0.691
 
band     3 # energy   -1.00875841 # occ.  2.00000000
 
ion      s     py     pz     px    dxy    dyz    dz2    dxz  x2-y2    tot
    1  0.000  0.000  0.001  0.000  0.025  0.196  0.024  0.017  0.000  0.263
    2  0.000  0.090  0.436  0.011  0.000  0.000  0.000  0.000  0.000  0.537
tot    0.000  0.090  0.437  0.011  0.025  0.196  0.024  0.017  0.000  0.801
 
band     4 # energy   -1.00875642 # occ.  2.00000000
 
ion      s     py     pz     px    dxy    dyz    dz2    dxz  x2-y2    tot
    1  0.000  0.001  0.000  0.000  0.107  0.046  0.105  0.004  0.001  0.263
    2  0.000  0.388  0.101  0.048  0.000  0.000  0.000  0.000  0.000  0.537
tot    0.000  0.389  0.102  0.049  0.107  0.046  0.105  0.004  0.001  0.801
 
band     5 # energy    1.84860191 # occ.  2.00000000
 
ion      s     py     pz     px    dxy    dyz    dz2    dxz  x2-y2    tot
    1  0.000  0.000  0.000  0.000  0.066  0.059  0.237  0.253  0.323  0.938
    2  0.000  0.008  0.004  0.001  0.000  0.000  0.000  0.000  0.000  0.013
tot    0.000  0.008  0.004  0.001  0.066  0.059  0.237  0.253  0.323  0.951
 
band     6 # energy    1.84860550 # occ.  2.00000000
 
ion      s     py     pz     px    dxy    dyz    dz2    dxz  x2-y2    tot
    1  0.000  0.000  0.000  0.000  0.033  0.119  0.118  0.507  0.161  0.938
    2  0.000  0.004  0.009  0.000  0.000  0.000  0.000  0.000  0.000  0.013
tot    0.000  0.004  0.009  0.000  0.033  0.119  0.118  0.507  0.161  0.951
 
band     7 # energy    1.90792279 # occ.  2.00000000
 
ion      s     py     pz     px    dxy    dyz    dz2    dxz  x2-y2    tot
    1  0.006  0.000  0.000  0.001  0.240  0.000  0.203  0.000  0.368  0.818
    2  0.001  0.013  0.000  0.101  0.000  0.000  0.000  0.000  0.000  0.114
tot    0.007  0.013  0.000  0.102  0.240  0.000  0.203  0.000  0.368  0.932
 
band     8 # energy    2.99465545 # occ.  2.00000000
 
ion      s     py     pz     px    dxy    dyz    dz2    dxz  x2-y2    tot
    1  0.000  0.001  0.001  0.000  0.207  0.289  0.103  0.097  0.017  0.714
    2  0.000  0.100  0.133  0.012  0.000  0.000  0.000  0.000  0.000  0.245
tot    0.000  0.100  0.134  0.013  0.207  0.289  0.103  0.097  0.017  0.959
 
band     9 # energy    2.99465762 # occ.  2.00000000
 
ion      s     py     pz     px    dxy    dyz    dz2    dxz  x2-y2    tot
    1  0.000  0.001  0.001  0.000  0.245  0.244  0.122  0.082  0.020  0.714
    2  0.000  0.118  0.112  0.015  0.000  0.000  0.000  0.000  0.000  0.245
tot    0.000  0.119  0.113  0.015  0.245  0.244  0.122  0.082  0.020  0.959
 
band    10 # energy    6.00929295 # occ.  0.00000000
 
ion      s     py     pz     px    dxy    dyz    dz2    dxz  x2-y2    tot
    1  0.248  0.011  0.000  0.085  0.000  0.000  0.000  0.000  0.001  0.345
    2  0.047  0.018  0.000  0.141  0.000  0.000  0.000  0.000  0.000  0.205
tot    0.295  0.028  0.000  0.226  0.000  0.000  0.000  0.000  0.001  0.551
 
band    11 # energy   12.18315163 # occ.  0.00000000
 
ion      s     py     pz     px    dxy    dyz    dz2    dxz  x2-y2    tot
    1  0.148  0.022  0.000  0.179  0.020  0.000  0.017  0.000  0.030  0.417
    2  0.007  0.010  0.000  0.083  0.000  0.000  0.000  0.000  0.000  0.100
tot    0.155  0.033  0.000  0.261  0.020  0.000  0.017  0.000  0.030  0.516
 
band    12 # energy   17.20578035 # occ.  0.00000000
 
ion      s     py     pz     px    dxy    dyz    dz2    dxz  x2-y2    tot
    1  0.000  0.115  0.324  0.014  0.003  0.000  0.001  0.019  0.004  0.481
    2  0.000  0.002  0.005  0.000  0.000  0.000  0.000  0.000  0.000  0.007
tot    0.000  0.117  0.329  0.015  0.003  0.000  0.001  0.019  0.004  0.488