PROCAR lm decomposed
# of k-points:    3         # of bands:   14         # of ions:    2

 k-point     1 :    0.00000000 0.00000000 0.00000000     weight = 0.12500000

band     1 # energy  -19.07229545 # occ.  2.00000000
 
ion      s     py     pz     px    dxy    dyz    dz2    dxz  x2-y2    tot
    1  0.012  0.000  0.000  0.000  0.000  0.000  0.000  0.000  0.000  0.012
    2  0.917  0.000  0.000  0.000  0.000  0.000  0.000  0.000  0.000  0.917
tot    0.929  0.000  0.000  0.000  0.000  0.000  0.000  0.000  0.000  0.929
 
band     2 # energy   -0.11354632 # occ.  2.00000000
 
ion      s     py     pz     px    dxy    dyz    dz2    dxz  x2-y2    tot
    1  0.000  0.001  0.007  0.002  0.000  0.000  0.000  0.000  0.000  0.011
    2  0.000  0.093  0.522  0.183  0.000  0.000  0.000  0.000  0.000  0.798
tot    0.000  0.094  0.529  0.185  0.000  0.000  0.000  0.000  0.000  0.809
 
band     3 # energy   -0.11349130 # occ.  2.00000000
 
ion      s     py     pz     px    dxy    dyz    dz2    dxz  x2-y2    tot
    1  0.000  0.008  0.000  0.003  0.000  0.000  0.000  0.000  0.000  0.011
    2  0.000  0.573  0.002  0.223  0.000  0.000  0.000  0.000  0.000  0.798
tot    0.000  0.581  0.002  0.226  0.000  0.000  0.000  0.000  0.000  0.809
 
band     4 # energy   -0.11348887 # occ.  2.00000000
 
ion      s     py     pz     px    dxy    dyz    dz2    dxz  x2-y2    tot
    1  0.000  0.002  0.004  0.005  0.000  0.000  0.000  0.000  0.000  0.011
    2  0.000  0.132  0.274  0.392  0.000  0.000  0.000  0.000  0.000  0.798
tot    0.000  0.133  0.278  0.398  0.000  0.000  0.000  0.000  0.000  0.809
 
band     5 # energy    1.16080159 # occ.  2.00000000
 
ion      s     py     pz     px    dxy    dyz    dz2    dxz  x2-y2    tot
    1  0.000  0.000  0.000  0.000  0.006  0.016  0.136  0.032  0.733  0.923
    2  0.000  0.000  0.000  0.000  0.000  0.000  0.000  0.000  0.000  0.000
tot    0.000  0.000  0.000  0.000  0.006  0.016  0.136  0.032  0.733  0.923
 
band     6 # energy    1.16080198 # occ.  2.00000000
 
ion      s     py     pz     px    dxy    dyz    dz2    dxz  x2-y2    tot
    1  0.000  0.000  0.000  0.000  0.241  0.067  0.371  0.133  0.110  0.923
    2  0.000  0.000  0.000  0.000  0.000  0.000  0.000  0.000  0.000  0.000
tot    0.000  0.000  0.000  0.000  0.241  0.067  0.371  0.133  0.110  0.923
 
band     7 # energy    1.16080398 # occ.  2.00000000
 
ion      s     py     pz     px    dxy    dyz    dz2    dxz  x2-y2    tot
    1  0.000  0.000  0.000  0.000  0.061  0.225  0.184  0.450  0.002  0.923
    2  0.000  0.000  0.000  0.000  0.000  0.000  0.000  0.000  0.000  0.000
tot    0.000  0.000  0.000  0.000  0.061  0.225  0.184  0.450  0.002  0.923
 
band     8 # energy    1.50052154 # occ.  2.00000000
 
ion      s     py     pz     px    dxy    dyz    dz2    dxz  x2-y2    tot
    1  0.000  0.000  0.000  0.000  0.001  0.631  0.000  0.315  0.000  0.947
    2  0.000  0.000  0.000  0.000  0.000  0.000  0.000  0.000  0.000  0.000
tot    0.000  0.000  0.000  0.000  0.001  0.631  0.000  0.315  0.000  0.947
 
band     9 # energy    1.50052164 # occ.  2.00000000
 
ion      s     py     pz     px    dxy    dyz    dz2    dxz  x2-y2    tot
    1  0.000  0.000  0.000  0.000  0.631  0.001  0.237  0.000  0.079  0.947
    2  0.000  0.000  0.000  0.000  0.000  0.000  0.000  0.000  0.000  0.000
tot    0.000  0.000  0.000  0.000  0.631  0.001  0.237  0.000  0.079  0.947
 
band    10 # energy    2.70629951 # occ.  2.00000000
 
ion      s     py     pz     px    dxy    dyz    dz2    dxz  x2-y2    tot
    1  0.417  0.000  0.000  0.000  0.000  0.000  0.000  0.000  0.000  0.417
    2  0.082  0.000  0.000  0.000  0.000  0.000  0.000  0.000  0.000  0.082
tot    0.499  0.000  0.000  0.000  0.000  0.000  0.000  0.000  0.000  0.499
 
band    11 # energy   18.56003700 # occ.  0.00000000
 
ion      s     py     pz     px    dxy    dyz    dz2    dxz  x2-y2    tot
    1  0.000  0.000  0.000  0.000  0.000  0.000  0.000  0.000  0.000  0.000
    2  0.000  0.000  0.000  0.000  0.000  0.000  0.000  0.000  0.000  0.000
tot    0.000  0.000  0.000  0.000  0.000  0.000  0.000  0.000  0.000  0.000
 
band    12 # energy   21.42528941 # occ.  0.00000000
 
ion      s     py     pz     px    dxy    dyz    dz2    dxz  x2-y2    tot
    1  0.000  0.000  0.000  0.000  0.041  0.026  0.179  0.052  0.038  0.336
    2  0.000  0.000  0.000  0.000  0.000  0.000  0.000  0.000  0.000  0.000
tot    0.000  0.000  0.000  0.000  0.041  0.026  0.179  0.052  0.038  0.336
 
band    13 # energy   21.42529951 # occ.  0.00000000
 
ion      s     py     pz     px    dxy    dyz    dz2    dxz  x2-y2    tot
    1  0.000  0.000  0.000  0.000  0.017  0.084  0.062  0.169  0.003  0.336
    2  0.000  0.000  0.000  0.000  0.000  0.000  0.000  0.000  0.000  0.000
tot    0.000  0.000  0.000  0.000  0.017  0.084  0.062  0.169  0.003  0.336
 
band    14 # energy   21.42532269 # occ.  0.00000000
 
ion      s     py     pz     px    dxy    dyz    dz2    dxz  x2-y2    tot
    1  0.000  0.000  0.000  0.000  0.054  0.002  0.011  0.003  0.266  0.336
    2  0.000  0.000  0.000  0.000  0.000  0.000  0.000  0.000  0.000  0.000
tot    0.000  0.000  0.000  0.000  0.054  0.002  0.011  0.003  0.266  0.336
 

 k-point     2 :    0.50000000 0.00000000 0.00000000     weight = 0.50000000

band     1 # energy  -18.90684742 # occ.  2.00000000
 
ion      s     py     pz     px    dxy    dyz    dz2    dxz  x2-y2    tot
    1  0.000  0.001  0.000  0.005  0.000  0.000  0.000  0.000  0.000  0.005
    2  0.935  0.000  0.000  0.000  0.000  0.000  0.000  0.000  0.000  0.935
tot    0.935  0.001  0.000  0.005  0.000  0.000  0.000  0.000  0.000  0.940
 
band     2 # energy   -2.23125624 # occ.  2.00000000
 
ion      s     py     pz     px    dxy    dyz    dz2    dxz  x2-y2    tot
    1  0.095  0.000  0.000  0.000  0.036  0.000  0.031  0.000  0.055  0.217
    2  0.000  0.053  0.000  0.421  0.000  0.000  0.000  0.000  0.000  0.474
tot    0.095  0.053  0.000  0.421  0.036  0.000  0.031  0.000  0.055  0.691
 
band     3 # energy   -1.34404605 # occ.  2.00000000
 
ion      s     py     pz     px    dxy    dyz    dz2    dxz  x2-y2    tot
    1  0.000  0.000  0.000  0.000  0.038  0.211  0.037  0.018  0.000  0.305
    2  0.000  0.112  0.381  0.014  0.000  0.000  0.000  0.000  0.000  0.507
tot    0.000  0.112  0.381  0.014  0.038  0.211  0.037  0.018  0.000  0.812
 
band     4 # energy   -1.34401166 # occ.  2.00000000
 
ion      s     py     pz     px    dxy    dyz    dz2    dxz  x2-y2    tot
    1  0.000  0.000  0.000  0.000  0.115  0.070  0.113  0.006  0.001  0.305
    2  0.000  0.339  0.126  0.042  0.000  0.000  0.000  0.000  0.000  0.507
tot    0.000  0.339  0.126  0.042  0.115  0.070  0.113  0.006  0.001  0.812
 
band     5 # energy    1.72334112 # occ.  2.00000000
 
ion      s     py     pz     px    dxy    dyz    dz2    dxz  x2-y2    tot
    1  0.000  0.000  0.000  0.000  0.040  0.106  0.136  0.475  0.190  0.946
    2  0.000  0.005  0.009  0.001  0.000  0.000  0.000  0.000  0.000  0.015
tot    0.000  0.005  0.009  0.001  0.040  0.106  0.136  0.475  0.190  0.961
 
band     6 # energy    1.72335046 # occ.  2.00000000
 
ion      s     py     pz     px    dxy    dyz    dz2    dxz  x2-y2    tot
    1  0.000  0.000  0.000  0.000  0.064  0.067  0.216  0.299  0.301  0.946
    2  0.000  0.008  0.006  0.001  0.000  0.000  0.000  0.000  0.000  0.015
tot    0.000  0.008  0.006  0.001  0.064  0.067  0.216  0.299  0.301  0.961
 
band     7 # energy    1.85031918 # occ.  2.00000000
 
ion      s     py     pz     px    dxy    dyz    dz2    dxz  x2-y2    tot
    1  0.005  0.000  0.000  0.000  0.235  0.000  0.198  0.000  0.360  0.799
    2  0.000  0.017  0.000  0.134  0.000  0.000  0.000  0.000  0.000  0.151
tot    0.005  0.017  0.000  0.134  0.235  0.000  0.198  0.000  0.360  0.950
 
band     8 # energy    3.07877151 # occ.  1.75017161
 
ion      s     py     pz     px    dxy    dyz    dz2    dxz  x2-y2    tot
    1  0.000  0.000  0.000  0.000  0.118  0.365  0.058  0.126  0.010  0.677
    2  0.000  0.072  0.215  0.009  0.000  0.000  0.000  0.000  0.000  0.296
tot    0.000  0.072  0.215  0.009  0.118  0.365  0.058  0.126  0.010  0.973
 
band     9 # energy    3.07880098 # occ.  1.74982839
 
ion      s     py     pz     px    dxy    dyz    dz2    dxz  x2-y2    tot
    1  0.000  0.000  0.000  0.000  0.312  0.139  0.153  0.048  0.026  0.677
    2  0.000  0.191  0.082  0.024  0.000  0.000  0.000  0.000  0.000  0.296
tot    0.000  0.191  0.082  0.024  0.312  0.139  0.153  0.048  0.026  0.973
 
band    10 # energy    8.13549496 # occ.  0.00000000
 
ion      s     py     pz     px    dxy    dyz    dz2    dxz  x2-y2    tot
    1  0.000  0.034  0.000  0.269  0.000  0.000  0.000  0.000  0.000  0.303
    2  0.050  0.000  0.000  0.000  0.000  0.000  0.000  0.000  0.000  0.050
tot    0.050  0.034  0.000  0.269  0.000  0.000  0.000  0.000  0.000  0.353
 
band    11 # energy    9.24286417 # occ.  0.00000000
 
ion      s     py     pz     px    dxy    dyz    dz2    dxz  x2-y2    tot
    1  0.421  0.000  0.000  0.000  0.014  0.000  0.012  0.000  0.021  0.468
    2  0.000  0.030  0.000  0.242  0.000  0.000  0.000  0.000  0.000  0.272
tot    0.421  0.030  0.000  0.242  0.014  0.000  0.012  0.000  0.021  0.740
 
band    12 # energy   16.32918067 # occ.  0.00000000
 
ion      s     py     pz     px    dxy    dyz    dz2    dxz  x2-y2    tot
    1  0.000  0.302  0.122  0.038  0.000  0.000  0.000  0.000  0.000  0.462
    2  0.000  0.000  0.000  0.000  0.000  0.000  0.000  0.000  0.000  0.000
tot    0.000  0.302  0.122  0.038  0.000  0.000  0.000  0.000  0.000  0.462
 
band    13 # energy   16.32929658 # occ.  0.00000000
 
ion      s     py     pz     px    dxy    dyz    dz2    dxz  x2-y2    tot
    1  0.000  0.108  0.340  0.014  0.000  0.000  0.000  0.000  0.000  0.462
    2  0.000  0.000  0.000  0.000  0.000  0.000  0.000  0.000  0.000  0.000
tot    0.000  0.108  0.340  0.014  0.000  0.000  0.000  0.000  0.000  0.462
 
band    14 # energy   21.72095945 # occ.  0.00000000
 
ion      s     py     pz     px    dxy    dyz    dz2    dxz  x2-y2    tot
    1  0.197  0.000  0.000  0.000  0.062  0.000  0.052  0.000  0.094  0.404
    2  0.000  0.000  0.000  0.003  0.000  0.000  0.000  0.000  0.000  0.003
tot    0.197  0.000  0.000  0.003  0.062  0.000  0.052  0.000  0.094  0.407
 

 k-point     3 :    0.50000000 0.50000000 0.00000000     weight = 0.37500000

band     1 # energy  -18.91349494 # occ.  2.00000000
 
ion      s     py     pz     px    dxy    dyz    dz2    dxz  x2-y2    tot
    1  0.001  0.000  0.000  0.000  0.006  0.000  0.002  0.000  0.001  0.010
    2  0.934  0.000  0.000  0.000  0.000  0.000  0.000  0.000  0.000  0.934
tot    0.935  0.000  0.000  0.000  0.006  0.000  0.002  0.000  0.001  0.944
 
band     2 # energy   -1.39209854 # occ.  2.00000000
 
ion      s     py     pz     px    dxy    dyz    dz2    dxz  x2-y2    tot
    1  0.000  0.021  0.000  0.043  0.000  0.000  0.000  0.000  0.000  0.064
    2  0.000  0.213  0.000  0.426  0.000  0.000  0.000  0.000  0.000  0.639
tot    0.000  0.234  0.000  0.468  0.000  0.000  0.000  0.000  0.000  0.703
 
band     3 # energy   -0.47063111 # occ.  2.00000000
 
ion      s     py     pz     px    dxy    dyz    dz2    dxz  x2-y2    tot
    1  0.000  0.000  0.029  0.000  0.000  0.000  0.000  0.000  0.000  0.029
    2  0.000  0.000  0.750  0.000  0.000  0.000  0.000  0.000  0.000  0.750
tot    0.000  0.000  0.780  0.000  0.000  0.000  0.000  0.000  0.000  0.780
 
band     4 # energy   -0.47059832 # occ.  2.00000000
 
ion      s     py     pz     px    dxy    dyz    dz2    dxz  x2-y2    tot
    1  0.000  0.019  0.000  0.010  0.000  0.000  0.000  0.000  0.000  0.029
    2  0.000  0.500  0.000  0.250  0.000  0.000  0.000  0.000  0.000  0.750
tot    0.000  0.520  0.000  0.260  0.000  0.000  0.000  0.000  0.000  0.780
 
band     5 # energy    0.59919686 # occ.  2.00000000
 
ion      s     py     pz     px    dxy    dyz    dz2    dxz  x2-y2    tot
    1  0.000  0.000  0.000  0.000  0.193  0.000  0.651  0.000  0.024  0.869
    2  0.000  0.000  0.000  0.000  0.000  0.000  0.000  0.000  0.000  0.000
tot    0.000  0.000  0.000  0.000  0.193  0.000  0.651  0.000  0.024  0.869
 
band     6 # energy    1.51297082 # occ.  2.00000000
 
ion      s     py     pz     px    dxy    dyz    dz2    dxz  x2-y2    tot
    1  0.005  0.000  0.000  0.000  0.611  0.000  0.229  0.000  0.076  0.921
    2  0.023  0.000  0.000  0.000  0.000  0.000  0.000  0.000  0.000  0.023
tot    0.027  0.000  0.000  0.000  0.611  0.000  0.229  0.000  0.076  0.944
 
band     7 # energy    1.79776540 # occ.  2.00000000
 
ion      s     py     pz     px    dxy    dyz    dz2    dxz  x2-y2    tot
    1  0.000  0.000  0.000  0.000  0.000  0.643  0.000  0.321  0.000  0.964
    2  0.000  0.000  0.000  0.000  0.000  0.000  0.000  0.000  0.000  0.000
tot    0.000  0.000  0.000  0.000  0.000  0.643  0.000  0.321  0.000  0.964
 
band     8 # energy    1.94773782 # occ.  2.00000000
 
ion      s     py     pz     px    dxy    dyz    dz2    dxz  x2-y2    tot
    1  0.000  0.000  0.000  0.000  0.108  0.000  0.000  0.000  0.865  0.973
    2  0.000  0.000  0.000  0.000  0.000  0.000  0.000  0.000  0.000  0.000
tot    0.000  0.000  0.000  0.000  0.108  0.000  0.000  0.000  0.865  0.973
 
band     9 # energy    1.94774006 # occ.  2.00000000
 
ion      s     py     pz     px    dxy    dyz    dz2    dxz  x2-y2    tot
    1  0.000  0.000  0.000  0.000  0.000  0.324  0.000  0.649  0.000  0.973
    2  0.000  0.000  0.000  0.000  0.000  0.000  0.000  0.000  0.000  0.000
tot    0.000  0.000  0.000  0.000  0.000  0.324  0.000  0.649  0.000  0.973
 
band    10 # energy    8.63572599 # occ.  0.00000000
 
ion      s     py     pz     px    dxy    dyz    dz2    dxz  x2-y2    tot
    1  0.623  0.000  0.000  0.000  0.019  0.000  0.007  0.000  0.002  0.651
    2  0.014  0.000  0.000  0.000  0.000  0.000  0.000  0.000  0.000  0.014
tot    0.636  0.000  0.000  0.000  0.019  0.000  0.007  0.000  0.002  0.665
 
band    11 # energy   10.37717871 # occ.  0.00000000
 
ion      s     py     pz     px    dxy    dyz    dz2    dxz  x2-y2    tot
    1  0.000  0.080  0.000  0.161  0.000  0.000  0.000  0.000  0.000  0.241
    2  0.000  0.087  0.000  0.174  0.000  0.000  0.000  0.000  0.000  0.261
tot    0.000  0.167  0.000  0.335  0.000  0.000  0.000  0.000  0.000  0.502
 
band    12 # energy   15.89883916 # occ.  0.00000000
 
ion      s     py     pz     px    dxy    dyz    dz2    dxz  x2-y2    tot
    1  0.000  0.000  0.411  0.000  0.000  0.000  0.000  0.000  0.000  0.411
    2  0.000  0.000  0.148  0.000  0.000  0.000  0.000  0.000  0.000  0.148
tot    0.000  0.000  0.558  0.000  0.000  0.000  0.000  0.000  0.000  0.558
 
band    13 # energy   15.89887608 # occ.  0.00000000
 
ion      s     py     pz     px    dxy    dyz    dz2    dxz  x2-y2    tot
    1  0.000  0.274  0.000  0.137  0.000  0.000  0.000  0.000  0.000  0.411
    2  0.000  0.099  0.000  0.049  0.000  0.000  0.000  0.000  0.000  0.148
tot    0.000  0.372  0.000  0.186  0.000  0.000  0.000  0.000  0.000  0.558
 
band    14 # energy   16.10990366 # occ.  0.00000000
 
ion      s     py     pz     px    dxy    dyz    dz2    dxz  x2-y2    tot
    1  0.000  0.000  0.000  0.000  0.070  0.000  0.235  0.000  0.009  0.314
    2  0.000  0.000  0.000  0.000  0.000  0.000  0.000  0.000  0.000  0.000
tot    0.000  0.000  0.000  0.000  0.070  0.000  0.235  0.000  0.009  0.314
 
