PROCAR lm decomposed
# of k-points:   10         # of bands:   14         # of ions:    2

 k-point     1 :    0.00000000 0.00000000 0.00000000     weight = 0.00800000

band     1 # energy  -19.14151046 # occ.  2.00000000
 
ion      s     py     pz     px    dxy    dyz    dz2    dxz  x2-y2    tot
    1  0.012  0.000  0.000  0.000  0.000  0.000  0.000  0.000  0.000  0.012
    2  0.917  0.000  0.000  0.000  0.000  0.000  0.000  0.000  0.000  0.917
tot    0.929  0.000  0.000  0.000  0.000  0.000  0.000  0.000  0.000  0.929
 
band     2 # energy   -0.17675759 # occ.  2.00000000
 
ion      s     py     pz     px    dxy    dyz    dz2    dxz  x2-y2    tot
    1  0.000  0.001  0.007  0.002  0.000  0.000  0.000  0.000  0.000  0.011
    2  0.000  0.095  0.518  0.185  0.000  0.000  0.000  0.000  0.000  0.798
tot    0.000  0.096  0.525  0.188  0.000  0.000  0.000  0.000  0.000  0.809
 
band     3 # energy   -0.17671996 # occ.  2.00000000
 
ion      s     py     pz     px    dxy    dyz    dz2    dxz  x2-y2    tot
    1  0.000  0.008  0.000  0.003  0.000  0.000  0.000  0.000  0.000  0.011
    2  0.000  0.573  0.002  0.224  0.000  0.000  0.000  0.000  0.000  0.798
tot    0.000  0.580  0.002  0.227  0.000  0.000  0.000  0.000  0.000  0.809
 
band     4 # energy   -0.17671750 # occ.  2.00000000
 
ion      s     py     pz     px    dxy    dyz    dz2    dxz  x2-y2    tot
    1  0.000  0.002  0.004  0.005  0.000  0.000  0.000  0.000  0.000  0.011
    2  0.000  0.131  0.279  0.389  0.000  0.000  0.000  0.000  0.000  0.798
tot    0.000  0.132  0.282  0.394  0.000  0.000  0.000  0.000  0.000  0.809
 
band     5 # energy    1.41955403 # occ.  2.00000000
 
ion      s     py     pz     px    dxy    dyz    dz2    dxz  x2-y2    tot
    1  0.000  0.000  0.000  0.000  0.089  0.122  0.402  0.244  0.065  0.921
    2  0.000  0.000  0.000  0.000  0.000  0.000  0.000  0.000  0.000  0.000
tot    0.000  0.000  0.000  0.000  0.089  0.122  0.402  0.244  0.065  0.921
 
band     6 # energy    1.41955506 # occ.  2.00000000
 
ion      s     py     pz     px    dxy    dyz    dz2    dxz  x2-y2    tot
    1  0.000  0.000  0.000  0.000  0.123  0.006  0.004  0.011  0.777  0.921
    2  0.000  0.000  0.000  0.000  0.000  0.000  0.000  0.000  0.000  0.000
tot    0.000  0.000  0.000  0.000  0.123  0.006  0.004  0.011  0.777  0.921
 
band     7 # energy    1.41955721 # occ.  2.00000000
 
ion      s     py     pz     px    dxy    dyz    dz2    dxz  x2-y2    tot
    1  0.000  0.000  0.000  0.000  0.095  0.179  0.285  0.359  0.003  0.921
    2  0.000  0.000  0.000  0.000  0.000  0.000  0.000  0.000  0.000  0.000
tot    0.000  0.000  0.000  0.000  0.095  0.179  0.285  0.359  0.003  0.921
 
band     8 # energy    1.78925061 # occ.  2.00000000
 
ion      s     py     pz     px    dxy    dyz    dz2    dxz  x2-y2    tot
    1  0.000  0.000  0.000  0.000  0.001  0.630  0.000  0.315  0.000  0.947
    2  0.000  0.000  0.000  0.000  0.000  0.000  0.000  0.000  0.000  0.000
tot    0.000  0.000  0.000  0.000  0.001  0.630  0.000  0.315  0.000  0.947
 
band     9 # energy    1.78925072 # occ.  2.00000000
 
ion      s     py     pz     px    dxy    dyz    dz2    dxz  x2-y2    tot
    1  0.000  0.000  0.000  0.000  0.630  0.001  0.236  0.000  0.079  0.947
    2  0.000  0.000  0.000  0.000  0.000  0.000  0.000  0.000  0.000  0.000
tot    0.000  0.000  0.000  0.000  0.630  0.001  0.236  0.000  0.079  0.947
 
band    10 # energy    2.76600992 # occ.  2.00000000
 
ion      s     py     pz     px    dxy    dyz    dz2    dxz  x2-y2    tot
    1  0.418  0.000  0.000  0.000  0.000  0.000  0.000  0.000  0.000  0.418
    2  0.081  0.000  0.000  0.000  0.000  0.000  0.000  0.000  0.000  0.081
tot    0.499  0.000  0.000  0.000  0.000  0.000  0.000  0.000  0.000  0.499
 
band    11 # energy   18.63770526 # occ.  0.00000000
 
ion      s     py     pz     px    dxy    dyz    dz2    dxz  x2-y2    tot
    1  0.000  0.000  0.000  0.000  0.000  0.000  0.000  0.000  0.000  0.000
    2  0.000  0.000  0.000  0.000  0.000  0.000  0.000  0.000  0.000  0.000
tot    0.000  0.000  0.000  0.000  0.000  0.000  0.000  0.000  0.000  0.000
 
band    12 # energy   21.49500204 # occ.  0.00000000
 
ion      s     py     pz     px    dxy    dyz    dz2    dxz  x2-y2    tot
    1  0.000  0.000  0.000  0.000  0.025  0.067  0.100  0.133  0.010  0.336
    2  0.000  0.000  0.000  0.000  0.000  0.000  0.000  0.000  0.000  0.000
tot    0.000  0.000  0.000  0.000  0.025  0.067  0.100  0.133  0.010  0.336
 
band    13 # energy   21.49501454 # occ.  0.00000000
 
ion      s     py     pz     px    dxy    dyz    dz2    dxz  x2-y2    tot
    1  0.000  0.000  0.000  0.000  0.032  0.043  0.131  0.085  0.045  0.336
    2  0.000  0.000  0.000  0.000  0.000  0.000  0.000  0.000  0.000  0.000
tot    0.000  0.000  0.000  0.000  0.032  0.043  0.131  0.085  0.045  0.336
 
band    14 # energy   21.49502063 # occ.  0.00000000
 
ion      s     py     pz     px    dxy    dyz    dz2    dxz  x2-y2    tot
    1  0.000  0.000  0.000  0.000  0.054  0.003  0.021  0.005  0.252  0.336
    2  0.000  0.000  0.000  0.000  0.000  0.000  0.000  0.000  0.000  0.000
tot    0.000  0.000  0.000  0.000  0.054  0.003  0.021  0.005  0.252  0.336
 

 k-point     2 :    0.20000000 0.00000000 0.00000000     weight = 0.06400000

band     1 # energy  -19.10043581 # occ.  2.00000000
 
ion      s     py     pz     px    dxy    dyz    dz2    dxz  x2-y2    tot
    1  0.008  0.000  0.000  0.002  0.000  0.000  0.000  0.000  0.000  0.010
    2  0.919  0.000  0.000  0.000  0.000  0.000  0.000  0.000  0.000  0.919
tot    0.927  0.000  0.000  0.002  0.000  0.000  0.000  0.000  0.000  0.929
 
band     2 # energy   -1.16944957 # occ.  2.00000000
 
ion      s     py     pz     px    dxy    dyz    dz2    dxz  x2-y2    tot
    1  0.068  0.000  0.000  0.002  0.019  0.000  0.016  0.000  0.029  0.135
    2  0.006  0.066  0.000  0.529  0.000  0.000  0.000  0.000  0.000  0.601
tot    0.075  0.066  0.000  0.531  0.019  0.000  0.016  0.000  0.029  0.736
 
band     3 # energy   -0.70142468 # occ.  2.00000000
 
ion      s     py     pz     px    dxy    dyz    dz2    dxz  x2-y2    tot
    1  0.000  0.001  0.004  0.000  0.023  0.119  0.023  0.010  0.000  0.180
    2  0.000  0.149  0.465  0.019  0.000  0.000  0.000  0.000  0.000  0.633
tot    0.000  0.150  0.469  0.019  0.023  0.119  0.023  0.010  0.000  0.812
 
band     4 # energy   -0.70139791 # occ.  2.00000000
 
ion      s     py     pz     px    dxy    dyz    dz2    dxz  x2-y2    tot
    1  0.000  0.003  0.001  0.000  0.064  0.043  0.064  0.004  0.000  0.180
    2  0.000  0.414  0.167  0.052  0.000  0.000  0.000  0.000  0.000  0.633
tot    0.000  0.417  0.169  0.052  0.064  0.043  0.064  0.004  0.000  0.812
 
band     5 # energy    1.61917024 # occ.  2.00000000
 
ion      s     py     pz     px    dxy    dyz    dz2    dxz  x2-y2    tot
    1  0.000  0.000  0.000  0.000  0.055  0.072  0.224  0.281  0.292  0.925
    2  0.000  0.005  0.004  0.001  0.000  0.000  0.000  0.000  0.000  0.009
tot    0.000  0.005  0.004  0.001  0.055  0.072  0.224  0.281  0.292  0.934
 
band     6 # energy    1.61917420 # occ.  2.00000000
 
ion      s     py     pz     px    dxy    dyz    dz2    dxz  x2-y2    tot
    1  0.000  0.000  0.000  0.000  0.034  0.117  0.139  0.454  0.181  0.925
    2  0.000  0.003  0.006  0.000  0.000  0.000  0.000  0.000  0.000  0.009
tot    0.000  0.003  0.006  0.000  0.034  0.117  0.139  0.454  0.181  0.934
 
band     7 # energy    1.63092629 # occ.  2.00000000
 
ion      s     py     pz     px    dxy    dyz    dz2    dxz  x2-y2    tot
    1  0.005  0.000  0.000  0.000  0.252  0.000  0.213  0.000  0.386  0.857
    2  0.001  0.007  0.000  0.057  0.000  0.000  0.000  0.000  0.000  0.065
tot    0.006  0.007  0.000  0.057  0.252  0.000  0.213  0.000  0.386  0.921
 
band     8 # energy    2.40412805 # occ.  2.00000000
 
ion      s     py     pz     px    dxy    dyz    dz2    dxz  x2-y2    tot
    1  0.000  0.001  0.002  0.000  0.138  0.428  0.070  0.139  0.011  0.789
    2  0.000  0.040  0.117  0.005  0.000  0.000  0.000  0.000  0.000  0.162
tot    0.000  0.041  0.119  0.005  0.138  0.428  0.070  0.139  0.011  0.951
 
band     9 # energy    2.40413485 # occ.  2.00000000
 
ion      s     py     pz     px    dxy    dyz    dz2    dxz  x2-y2    tot
    1  0.000  0.002  0.001  0.000  0.357  0.166  0.182  0.054  0.028  0.789
    2  0.000  0.104  0.045  0.013  0.000  0.000  0.000  0.000  0.000  0.162
tot    0.000  0.106  0.046  0.013  0.357  0.166  0.182  0.054  0.028  0.951
 
band    10 # energy    4.20363727 # occ.  0.00000000
 
ion      s     py     pz     px    dxy    dyz    dz2    dxz  x2-y2    tot
    1  0.322  0.004  0.000  0.032  0.000  0.000  0.000  0.000  0.000  0.358
    2  0.061  0.016  0.000  0.124  0.000  0.000  0.000  0.000  0.000  0.201
tot    0.383  0.020  0.000  0.157  0.000  0.000  0.000  0.000  0.000  0.559
 
band    11 # energy   15.40561609 # occ.  0.00000000
 
ion      s     py     pz     px    dxy    dyz    dz2    dxz  x2-y2    tot
    1  0.053  0.025  0.000  0.197  0.031  0.000  0.026  0.000  0.048  0.380
    2  0.002  0.005  0.000  0.037  0.000  0.000  0.000  0.000  0.000  0.044
tot    0.056  0.029  0.000  0.234  0.031  0.000  0.026  0.000  0.048  0.424
 
band    12 # energy   18.82684906 # occ.  0.00000000
 
ion      s     py     pz     px    dxy    dyz    dz2    dxz  x2-y2    tot
    1  0.000  0.003  0.438  0.000  0.000  0.003  0.000  0.072  0.000  0.517
    2  0.000  0.000  0.018  0.000  0.000  0.000  0.000  0.000  0.000  0.018
tot    0.000  0.003  0.455  0.000  0.000  0.003  0.000  0.072  0.000  0.534
 
band    13 # energy   18.82685561 # occ.  0.00000000
 
ion      s     py     pz     px    dxy    dyz    dz2    dxz  x2-y2    tot
    1  0.000  0.389  0.003  0.049  0.019  0.000  0.015  0.001  0.041  0.517
    2  0.000  0.016  0.000  0.002  0.000  0.000  0.000  0.000  0.000  0.018
tot    0.000  0.405  0.003  0.051  0.019  0.000  0.015  0.001  0.041  0.534
 
band    14 # energy   20.10111765 # occ.  0.00000000
 
ion      s     py     pz     px    dxy    dyz    dz2    dxz  x2-y2    tot
    1  0.067  0.021  0.000  0.167  0.006  0.000  0.005  0.000  0.009  0.274
    2  0.003  0.002  0.000  0.013  0.000  0.000  0.000  0.000  0.000  0.018
tot    0.070  0.023  0.000  0.180  0.006  0.000  0.005  0.000  0.009  0.292
 

 k-point     3 :    0.40000000 0.00000000 0.00000000     weight = 0.06400000

band     1 # energy  -19.01208878 # occ.  2.00000000
 
ion      s     py     pz     px    dxy    dyz    dz2    dxz  x2-y2    tot
    1  0.001  0.001  0.000  0.004  0.000  0.000  0.000  0.000  0.000  0.006
    2  0.929  0.000  0.000  0.000  0.000  0.000  0.000  0.000  0.000  0.929
tot    0.930  0.001  0.000  0.004  0.000  0.000  0.000  0.000  0.000  0.935
 
band     2 # energy   -2.11711631 # occ.  2.00000000
 
ion      s     py     pz     px    dxy    dyz    dz2    dxz  x2-y2    tot
    1  0.092  0.000  0.000  0.000  0.030  0.000  0.026  0.000  0.047  0.195
    2  0.001  0.056  0.000  0.444  0.000  0.000  0.000  0.000  0.000  0.501
tot    0.094  0.056  0.000  0.444  0.030  0.000  0.026  0.000  0.047  0.696
 
band     3 # energy   -1.25972250 # occ.  2.00000000
 
ion      s     py     pz     px    dxy    dyz    dz2    dxz  x2-y2    tot
    1  0.000  0.000  0.000  0.000  0.034  0.181  0.033  0.016  0.000  0.263
    2  0.000  0.123  0.408  0.015  0.000  0.000  0.000  0.000  0.000  0.546
tot    0.000  0.123  0.408  0.015  0.034  0.181  0.033  0.016  0.000  0.809
 
band     4 # energy   -1.25970035 # occ.  2.00000000
 
ion      s     py     pz     px    dxy    dyz    dz2    dxz  x2-y2    tot
    1  0.000  0.000  0.000  0.000  0.099  0.061  0.097  0.005  0.001  0.263
    2  0.000  0.363  0.138  0.045  0.000  0.000  0.000  0.000  0.000  0.546
tot    0.000  0.363  0.139  0.045  0.099  0.061  0.097  0.005  0.001  0.809
 
band     5 # energy    1.93774806 # occ.  2.00000000
 
ion      s     py     pz     px    dxy    dyz    dz2    dxz  x2-y2    tot
    1  0.000  0.000  0.000  0.000  0.061  0.064  0.241  0.256  0.319  0.941
    2  0.000  0.009  0.005  0.001  0.000  0.000  0.000  0.000  0.000  0.015
tot    0.000  0.009  0.005  0.001  0.061  0.064  0.241  0.256  0.319  0.956
 
band     6 # energy    1.93775162 # occ.  2.00000000
 
ion      s     py     pz     px    dxy    dyz    dz2    dxz  x2-y2    tot
    1  0.000  0.000  0.000  0.000  0.032  0.124  0.124  0.497  0.164  0.941
    2  0.000  0.005  0.010  0.001  0.000  0.000  0.000  0.000  0.000  0.015
tot    0.000  0.005  0.010  0.001  0.032  0.124  0.124  0.497  0.164  0.956
 
band     7 # energy    1.99526369 # occ.  2.00000000
 
ion      s     py     pz     px    dxy    dyz    dz2    dxz  x2-y2    tot
    1  0.004  0.000  0.000  0.000  0.240  0.000  0.202  0.000  0.367  0.813
    2  0.000  0.014  0.000  0.115  0.000  0.000  0.000  0.000  0.000  0.130
tot    0.004  0.014  0.000  0.115  0.240  0.000  0.202  0.000  0.367  0.943
 
band     8 # energy    3.15272850 # occ.  1.99198030
 
ion      s     py     pz     px    dxy    dyz    dz2    dxz  x2-y2    tot
    1  0.000  0.000  0.001  0.000  0.140  0.364  0.066  0.133  0.013  0.717
    2  0.000  0.069  0.177  0.009  0.000  0.000  0.000  0.000  0.000  0.255
tot    0.000  0.069  0.178  0.009  0.140  0.364  0.066  0.133  0.013  0.972
 
band     9 # energy    3.15273987 # occ.  1.99197266
 
ion      s     py     pz     px    dxy    dyz    dz2    dxz  x2-y2    tot
    1  0.000  0.001  0.000  0.000  0.319  0.160  0.150  0.059  0.029  0.717
    2  0.000  0.158  0.078  0.020  0.000  0.000  0.000  0.000  0.000  0.255
tot    0.000  0.158  0.078  0.020  0.319  0.160  0.150  0.059  0.029  0.972
 
band    10 # energy    6.95262227 # occ.  0.00000000
 
ion      s     py     pz     px    dxy    dyz    dz2    dxz  x2-y2    tot
    1  0.199  0.016  0.000  0.128  0.001  0.000  0.001  0.000  0.002  0.349
    2  0.042  0.014  0.000  0.113  0.000  0.000  0.000  0.000  0.000  0.170
tot    0.242  0.030  0.000  0.242  0.001  0.000  0.001  0.000  0.002  0.519
 
band    11 # energy   10.77086405 # occ.  0.00000000
 
ion      s     py     pz     px    dxy    dyz    dz2    dxz  x2-y2    tot
    1  0.216  0.017  0.000  0.139  0.015  0.000  0.013  0.000  0.024  0.425
    2  0.009  0.015  0.000  0.117  0.000  0.000  0.000  0.000  0.000  0.141
tot    0.225  0.032  0.000  0.256  0.015  0.000  0.013  0.000  0.024  0.566
 
band    12 # energy   16.69326074 # occ.  0.00000000
 
ion      s     py     pz     px    dxy    dyz    dz2    dxz  x2-y2    tot
    1  0.000  0.039  0.413  0.005  0.000  0.000  0.000  0.009  0.001  0.468
    2  0.000  0.000  0.002  0.000  0.000  0.000  0.000  0.000  0.000  0.002
tot    0.000  0.040  0.416  0.005  0.000  0.000  0.000  0.009  0.001  0.470
 
band    13 # energy   16.69326992 # occ.  0.00000000
 
ion      s     py     pz     px    dxy    dyz    dz2    dxz  x2-y2    tot
    1  0.000  0.367  0.044  0.046  0.003  0.000  0.001  0.001  0.005  0.468
    2  0.000  0.002  0.000  0.000  0.000  0.000  0.000  0.000  0.000  0.002
tot    0.000  0.369  0.045  0.046  0.003  0.000  0.001  0.001  0.005  0.470
 
band    14 # energy   21.30315975 # occ.  0.00000000
 
ion      s     py     pz     px    dxy    dyz    dz2    dxz  x2-y2    tot
    1  0.145  0.005  0.000  0.039  0.041  0.000  0.035  0.000  0.063  0.328
    2  0.009  0.000  0.000  0.000  0.000  0.000  0.000  0.000  0.000  0.009
tot    0.154  0.005  0.000  0.040  0.041  0.000  0.035  0.000  0.063  0.338
 

 k-point     4 :    0.20000000 0.20000000 0.00000000     weight = 0.04800000

band     1 # energy  -19.08493542 # occ.  2.00000000
 
ion      s     py     pz     px    dxy    dyz    dz2    dxz  x2-y2    tot
    1  0.007  0.001  0.000  0.001  0.001  0.000  0.000  0.000  0.000  0.010
    2  0.922  0.000  0.000  0.000  0.000  0.000  0.000  0.000  0.000  0.922
tot    0.929  0.001  0.000  0.001  0.001  0.000  0.000  0.000  0.000  0.931
 
band     2 # energy   -1.43737772 # occ.  2.00000000
 
ion      s     py     pz     px    dxy    dyz    dz2    dxz  x2-y2    tot
    1  0.047  0.001  0.000  0.001  0.094  0.000  0.035  0.000  0.012  0.191
    2  0.003  0.187  0.000  0.374  0.000  0.000  0.000  0.000  0.000  0.565
tot    0.050  0.188  0.000  0.376  0.094  0.000  0.035  0.000  0.012  0.755
 
band     3 # energy   -0.43891499 # occ.  2.00000000
 
ion      s     py     pz     px    dxy    dyz    dz2    dxz  x2-y2    tot
    1  0.000  0.000  0.016  0.000  0.000  0.019  0.000  0.038  0.000  0.073
    2  0.000  0.000  0.724  0.000  0.000  0.000  0.000  0.000  0.000  0.724
tot    0.000  0.000  0.740  0.000  0.000  0.019  0.000  0.038  0.000  0.797
 
band     4 # energy   -0.43889346 # occ.  2.00000000
 
ion      s     py     pz     px    dxy    dyz    dz2    dxz  x2-y2    tot
    1  0.000  0.011  0.000  0.005  0.006  0.000  0.000  0.000  0.051  0.073
    2  0.000  0.482  0.000  0.241  0.000  0.000  0.000  0.000  0.000  0.724
tot    0.000  0.493  0.000  0.247  0.006  0.000  0.000  0.000  0.051  0.797
 
band     5 # energy    1.21269813 # occ.  2.00000000
 
ion      s     py     pz     px    dxy    dyz    dz2    dxz  x2-y2    tot
    1  0.000  0.000  0.000  0.000  0.200  0.000  0.675  0.000  0.025  0.900
    2  0.000  0.000  0.000  0.000  0.000  0.000  0.000  0.000  0.000  0.000
tot    0.000  0.000  0.000  0.000  0.200  0.000  0.675  0.000  0.025  0.900
 
band     6 # energy    1.86514188 # occ.  2.00000000
 
ion      s     py     pz     px    dxy    dyz    dz2    dxz  x2-y2    tot
    1  0.000  0.000  0.000  0.000  0.000  0.294  0.000  0.588  0.000  0.883
    2  0.000  0.000  0.064  0.000  0.000  0.000  0.000  0.000  0.000  0.064
tot    0.000  0.000  0.064  0.000  0.000  0.294  0.000  0.588  0.000  0.946
 
band     7 # energy    1.86514246 # occ.  2.00000000
 
ion      s     py     pz     px    dxy    dyz    dz2    dxz  x2-y2    tot
    1  0.000  0.000  0.000  0.000  0.098  0.000  0.000  0.000  0.784  0.883
    2  0.000  0.042  0.000  0.021  0.000  0.000  0.000  0.000  0.000  0.064
tot    0.000  0.042  0.000  0.021  0.098  0.000  0.000  0.000  0.784  0.946
 
band     8 # energy    1.89299166 # occ.  2.00000000
 
ion      s     py     pz     px    dxy    dyz    dz2    dxz  x2-y2    tot
    1  0.000  0.000  0.000  0.000  0.000  0.635  0.000  0.317  0.000  0.952
    2  0.000  0.000  0.000  0.000  0.000  0.000  0.000  0.000  0.000  0.000
tot    0.000  0.000  0.000  0.000  0.000  0.635  0.000  0.317  0.000  0.952
 
band     9 # energy    2.19628023 # occ.  2.00000000
 
ion      s     py     pz     px    dxy    dyz    dz2    dxz  x2-y2    tot
    1  0.076  0.001  0.000  0.001  0.482  0.000  0.181  0.000  0.060  0.801
    2  0.020  0.016  0.000  0.032  0.000  0.000  0.000  0.000  0.000  0.069
tot    0.096  0.017  0.000  0.033  0.482  0.000  0.181  0.000  0.060  0.869
 
band    10 # energy    4.90191317 # occ.  0.00000000
 
ion      s     py     pz     px    dxy    dyz    dz2    dxz  x2-y2    tot
    1  0.271  0.009  0.000  0.018  0.061  0.000  0.023  0.000  0.008  0.389
    2  0.042  0.073  0.000  0.147  0.000  0.000  0.000  0.000  0.000  0.262
tot    0.313  0.082  0.000  0.165  0.061  0.000  0.023  0.000  0.008  0.651
 
band    11 # energy   16.71144354 # occ.  0.00000000
 
ion      s     py     pz     px    dxy    dyz    dz2    dxz  x2-y2    tot
    1  0.149  0.143  0.000  0.286  0.014  0.000  0.005  0.000  0.002  0.599
    2  0.002  0.000  0.000  0.000  0.000  0.000  0.000  0.000  0.000  0.002
tot    0.150  0.143  0.000  0.286  0.014  0.000  0.005  0.000  0.002  0.601
 
band    12 # energy   17.23137458 # occ.  0.00000000
 
ion      s     py     pz     px    dxy    dyz    dz2    dxz  x2-y2    tot
    1  0.000  0.000  0.000  0.000  0.045  0.000  0.152  0.000  0.006  0.202
    2  0.000  0.000  0.000  0.000  0.000  0.000  0.000  0.000  0.000  0.000
tot    0.000  0.000  0.000  0.000  0.045  0.000  0.152  0.000  0.006  0.202
 
band    13 # energy   17.79048697 # occ.  0.00000000
 
ion      s     py     pz     px    dxy    dyz    dz2    dxz  x2-y2    tot
    1  0.000  0.000  0.387  0.000  0.000  0.025  0.000  0.050  0.000  0.462
    2  0.000  0.000  0.065  0.000  0.000  0.000  0.000  0.000  0.000  0.065
tot    0.000  0.000  0.451  0.000  0.000  0.025  0.000  0.050  0.000  0.527
 
band    14 # energy   17.79049079 # occ.  0.00000000
 
ion      s     py     pz     px    dxy    dyz    dz2    dxz  x2-y2    tot
    1  0.000  0.258  0.000  0.129  0.008  0.000  0.000  0.000  0.067  0.462
    2  0.000  0.043  0.000  0.022  0.000  0.000  0.000  0.000  0.000  0.065
tot    0.000  0.301  0.000  0.150  0.008  0.000  0.000  0.000  0.067  0.527
 

 k-point     5 :    0.40000000 0.20000000 0.00000000     weight = 0.19200000

band     1 # energy  -19.00817635 # occ.  2.00000000
 
ion      s     py     pz     px    dxy    dyz    dz2    dxz  x2-y2    tot
    1  0.002  0.000  0.000  0.003  0.002  0.000  0.001  0.000  0.000  0.008
    2  0.931  0.000  0.000  0.000  0.000  0.000  0.000  0.000  0.000  0.931
tot    0.933  0.000  0.000  0.003  0.002  0.000  0.001  0.000  0.000  0.939
 
band     2 # energy   -1.74954136 # occ.  2.00000000
 
ion      s     py     pz     px    dxy    dyz    dz2    dxz  x2-y2    tot
    1  0.055  0.009  0.000  0.005  0.095  0.000  0.004  0.000  0.010  0.178
    2  0.001  0.029  0.000  0.512  0.000  0.000  0.000  0.000  0.000  0.542
tot    0.057  0.038  0.000  0.517  0.095  0.000  0.004  0.000  0.010  0.721
 
band     3 # energy   -1.04493426 # occ.  2.00000000
 
ion      s     py     pz     px    dxy    dyz    dz2    dxz  x2-y2    tot
    1  0.009  0.004  0.000  0.007  0.021  0.000  0.119  0.000  0.031  0.191
    2  0.001  0.559  0.000  0.034  0.000  0.000  0.000  0.000  0.000  0.593
tot    0.010  0.563  0.000  0.041  0.021  0.000  0.119  0.000  0.031  0.785
 
band     4 # energy   -0.87061654 # occ.  2.00000000
 
ion      s     py     pz     px    dxy    dyz    dz2    dxz  x2-y2    tot
    1  0.000  0.000  0.012  0.000  0.000  0.161  0.000  0.003  0.000  0.176
    2  0.000  0.000  0.623  0.000  0.000  0.000  0.000  0.000  0.000  0.623
tot    0.000  0.000  0.635  0.000  0.000  0.161  0.000  0.003  0.000  0.799
 
band     5 # energy    1.38545959 # occ.  2.00000000
 
ion      s     py     pz     px    dxy    dyz    dz2    dxz  x2-y2    tot
    1  0.002  0.000  0.000  0.000  0.258  0.000  0.546  0.000  0.061  0.867
    2  0.000  0.024  0.000  0.015  0.000  0.000  0.000  0.000  0.000  0.040
tot    0.002  0.024  0.000  0.015  0.258  0.000  0.546  0.000  0.061  0.906
 
band     6 # energy    2.05326785 # occ.  2.00000000
 
ion      s     py     pz     px    dxy    dyz    dz2    dxz  x2-y2    tot
    1  0.000  0.000  0.000  0.000  0.000  0.111  0.000  0.840  0.000  0.952
    2  0.000  0.000  0.012  0.000  0.000  0.000  0.000  0.000  0.000  0.012
tot    0.000  0.000  0.012  0.000  0.000  0.111  0.000  0.840  0.000  0.963
 
band     7 # energy    2.09811444 # occ.  2.00000000
 
ion      s     py     pz     px    dxy    dyz    dz2    dxz  x2-y2    tot
    1  0.001  0.000  0.000  0.000  0.086  0.000  0.001  0.000  0.803  0.891
    2  0.000  0.008  0.000  0.060  0.000  0.000  0.000  0.000  0.000  0.068
tot    0.001  0.008  0.000  0.060  0.086  0.000  0.001  0.000  0.803  0.960
 
band     8 # energy    2.51786457 # occ.  2.00000000
 
ion      s     py     pz     px    dxy    dyz    dz2    dxz  x2-y2    tot
    1  0.000  0.000  0.003  0.000  0.000  0.683  0.000  0.121  0.000  0.807
    2  0.000  0.000  0.152  0.000  0.000  0.000  0.000  0.000  0.000  0.152
tot    0.000  0.000  0.155  0.000  0.000  0.683  0.000  0.121  0.000  0.959
 
band     9 # energy    2.61575230 # occ.  2.00000000
 
ion      s     py     pz     px    dxy    dyz    dz2    dxz  x2-y2    tot
    1  0.016  0.000  0.000  0.010  0.458  0.000  0.234  0.000  0.039  0.757
    2  0.013  0.149  0.000  0.007  0.000  0.000  0.000  0.000  0.000  0.169
tot    0.029  0.149  0.000  0.017  0.458  0.000  0.234  0.000  0.039  0.926
 
band    10 # energy    6.93634240 # occ.  0.00000000
 
ion      s     py     pz     px    dxy    dyz    dz2    dxz  x2-y2    tot
    1  0.282  0.000  0.000  0.064  0.019  0.000  0.008  0.000  0.017  0.390
    2  0.030  0.017  0.000  0.190  0.000  0.000  0.000  0.000  0.000  0.236
tot    0.311  0.017  0.000  0.254  0.019  0.000  0.008  0.000  0.017  0.626
 
band    11 # energy   12.51453396 # occ.  0.00000000
 
ion      s     py     pz     px    dxy    dyz    dz2    dxz  x2-y2    tot
    1  0.175  0.003  0.000  0.228  0.012  0.000  0.026  0.000  0.003  0.447
    2  0.005  0.053  0.000  0.021  0.000  0.000  0.000  0.000  0.000  0.080
tot    0.181  0.057  0.000  0.249  0.012  0.000  0.026  0.000  0.003  0.527
 
band    12 # energy   14.98622078 # occ.  0.00000000
 
ion      s     py     pz     px    dxy    dyz    dz2    dxz  x2-y2    tot
    1  0.051  0.283  0.000  0.020  0.058  0.000  0.026  0.000  0.003  0.440
    2  0.001  0.000  0.000  0.033  0.000  0.000  0.000  0.000  0.000  0.033
tot    0.052  0.283  0.000  0.053  0.058  0.000  0.026  0.000  0.003  0.474
 
band    13 # energy   16.53749067 # occ.  0.00000000
 
ion      s     py     pz     px    dxy    dyz    dz2    dxz  x2-y2    tot
    1  0.000  0.000  0.420  0.000  0.000  0.006  0.000  0.016  0.000  0.441
    2  0.000  0.000  0.072  0.000  0.000  0.000  0.000  0.000  0.000  0.072
tot    0.000  0.000  0.492  0.000  0.000  0.006  0.000  0.016  0.000  0.513
 
band    14 # energy   19.66368997 # occ.  0.00000000
 
ion      s     py     pz     px    dxy    dyz    dz2    dxz  x2-y2    tot
    1  0.004  0.125  0.000  0.021  0.001  0.000  0.163  0.000  0.012  0.326
    2  0.010  0.001  0.000  0.025  0.000  0.000  0.000  0.000  0.000  0.036
tot    0.015  0.126  0.000  0.046  0.001  0.000  0.163  0.000  0.012  0.362
 

 k-point     6 :   -0.40000000 0.20000000-0.00000000     weight = 0.19200000

band     1 # energy  -18.99768527 # occ.  2.00000000
 
ion      s     py     pz     px    dxy    dyz    dz2    dxz  x2-y2    tot
    1  0.000  0.001  0.000  0.003  0.002  0.000  0.001  0.000  0.000  0.007
    2  0.930  0.000  0.000  0.000  0.000  0.000  0.000  0.000  0.000  0.930
tot    0.930  0.001  0.000  0.003  0.002  0.000  0.001  0.000  0.000  0.936
 
band     2 # energy   -1.94500281 # occ.  2.00000000
 
ion      s     py     pz     px    dxy    dyz    dz2    dxz  x2-y2    tot
    1  0.071  0.009  0.000  0.000  0.004  0.000  0.064  0.000  0.033  0.181
    2  0.000  0.129  0.000  0.399  0.000  0.000  0.000  0.000  0.000  0.528
tot    0.071  0.137  0.000  0.399  0.004  0.000  0.064  0.000  0.033  0.709
 
band     3 # energy   -1.24926705 # occ.  2.00000000
 
ion      s     py     pz     px    dxy    dyz    dz2    dxz  x2-y2    tot
    1  0.000  0.000  0.004  0.000  0.000  0.204  0.000  0.038  0.000  0.246
    2  0.000  0.000  0.559  0.000  0.000  0.000  0.000  0.000  0.000  0.559
tot    0.000  0.000  0.563  0.000  0.000  0.204  0.000  0.038  0.000  0.805
 
band     4 # energy   -1.24736950 # occ.  2.00000000
 
ion      s     py     pz     px    dxy    dyz    dz2    dxz  x2-y2    tot
    1  0.000  0.003  0.000  0.018  0.091  0.000  0.071  0.000  0.011  0.195
    2  0.000  0.430  0.000  0.148  0.000  0.000  0.000  0.000  0.000  0.578
tot    0.000  0.434  0.000  0.166  0.091  0.000  0.071  0.000  0.011  0.773
 
band     5 # energy    1.84060196 # occ.  2.00000000
 
ion      s     py     pz     px    dxy    dyz    dz2    dxz  x2-y2    tot
    1  0.000  0.000  0.000  0.001  0.307  0.000  0.411  0.000  0.187  0.907
    2  0.001  0.024  0.000  0.010  0.000  0.000  0.000  0.000  0.000  0.036
tot    0.001  0.024  0.000  0.011  0.307  0.000  0.411  0.000  0.187  0.942
 
band     6 # energy    1.99810147 # occ.  2.00000000
 
ion      s     py     pz     px    dxy    dyz    dz2    dxz  x2-y2    tot
    1  0.000  0.000  0.000  0.000  0.000  0.241  0.000  0.713  0.000  0.953
    2  0.000  0.000  0.006  0.000  0.000  0.000  0.000  0.000  0.000  0.006
tot    0.000  0.000  0.006  0.000  0.000  0.241  0.000  0.713  0.000  0.959
 
band     7 # energy    2.02665179 # occ.  2.00000000
 
ion      s     py     pz     px    dxy    dyz    dz2    dxz  x2-y2    tot
    1  0.002  0.000  0.000  0.000  0.087  0.000  0.061  0.000  0.692  0.843
    2  0.000  0.000  0.000  0.105  0.000  0.000  0.000  0.000  0.000  0.105
tot    0.002  0.000  0.000  0.105  0.087  0.000  0.061  0.000  0.692  0.949
 
band     8 # energy    2.58361846 # occ.  2.00000000
 
ion      s     py     pz     px    dxy    dyz    dz2    dxz  x2-y2    tot
    1  0.004  0.000  0.000  0.008  0.442  0.000  0.323  0.000  0.007  0.784
    2  0.008  0.146  0.000  0.009  0.000  0.000  0.000  0.000  0.000  0.164
tot    0.012  0.146  0.000  0.017  0.442  0.000  0.323  0.000  0.007  0.948
 
band     9 # energy    3.18408175 # occ.  1.92234127
 
ion      s     py     pz     px    dxy    dyz    dz2    dxz  x2-y2    tot
    1  0.000  0.000  0.001  0.000  0.000  0.517  0.000  0.218  0.000  0.735
    2  0.000  0.000  0.240  0.000  0.000  0.000  0.000  0.000  0.000  0.240
tot    0.000  0.000  0.241  0.000  0.000  0.517  0.000  0.218  0.000  0.976
 
band    10 # energy    8.93486738 # occ.  0.00000000
 
ion      s     py     pz     px    dxy    dyz    dz2    dxz  x2-y2    tot
    1  0.268  0.029  0.000  0.077  0.031  0.000  0.010  0.000  0.000  0.415
    2  0.017  0.099  0.000  0.079  0.000  0.000  0.000  0.000  0.000  0.195
tot    0.285  0.128  0.000  0.156  0.031  0.000  0.010  0.000  0.000  0.609
 
band    11 # energy    9.92286502 # occ.  0.00000000
 
ion      s     py     pz     px    dxy    dyz    dz2    dxz  x2-y2    tot
    1  0.190  0.015  0.000  0.168  0.000  0.000  0.001  0.000  0.034  0.407
    2  0.019  0.002  0.000  0.104  0.000  0.000  0.000  0.000  0.000  0.125
tot    0.209  0.017  0.000  0.272  0.000  0.000  0.001  0.000  0.034  0.532
 
band    12 # energy   13.78807411 # occ.  0.00000000
 
ion      s     py     pz     px    dxy    dyz    dz2    dxz  x2-y2    tot
    1  0.067  0.280  0.000  0.025  0.020  0.000  0.003  0.000  0.025  0.420
    2  0.003  0.020  0.000  0.032  0.000  0.000  0.000  0.000  0.000  0.055
tot    0.070  0.300  0.000  0.056  0.020  0.000  0.003  0.000  0.025  0.475