<?xml version="1.0" encoding="ISO-8859-1"?>
<modeling>
 <generator>
  <i name="program" type="string">vasp </i>
  <i name="version" type="string">5.4.4.18Apr17-6-g9f103f2a35  </i>
  <i name="subversion" type="string">(build Jan 25 2021 16:16:55) complex            parallel </i>
  <i name="platform" type="string">LinuxIFC </i>
  <i name="date" type="string">2026 05 01 </i>
  <i name="time" type="string">08:11:22 </i>
 </generator>
 <incar>
  <i type="string" name="SYSTEM"> r-GeO2 ENCUT convergence test</i>
  <i type="int" name="ISTART">     0</i>
  <i type="string" name="PREC">accurate</i>
  <i type="string" name="ALGO"> Normal</i>
  <i type="int" name="ICHARG">     2</i>
  <i type="int" name="IBRION">    -1</i>
  <i name="EDIFF">      0.00010000</i>
  <i type="int" name="NSW">     0</i>
  <i name="ENCUT">    500.00000000</i>
  <i type="logical" name="LREAL"> F  </i>
  <i type="int" name="ISMEAR">     0</i>
  <i name="SIGMA">      0.05000000</i>
  <i type="logical" name="LWAVE"> F  </i>
  <i type="logical" name="LCHARG"> F  </i>
  <i type="int" name="LORBIT">    11</i>
  <i type="logical" name="LASPH"> T  </i>
  <v type="int" name="KPOINT_BSE">    -1     0     0     0</v>
  <i type="logical" name="LASPH"> T  </i>
 </incar>
 <structure name="primitive_cell" >
  <crystal>
   <varray name="basis" >
    <v>       3.01395775       0.00000000       1.74010806 </v>
    <v>       1.00465292       2.84158622       1.74010806 </v>
    <v>      -0.00000002      -0.00000001       3.48021917 </v>
   </varray>
   <i name="volume">     29.80606162 </i>
   <varray name="rec_basis" >
    <v>       0.33178965      -0.11730541       0.00000000 </v>
    <v>      -0.00000000       0.35191612       0.00000000 </v>
    <v>      -0.16589468      -0.11730525       0.28733822 </v>
   </varray>
  </crystal>
  <varray name="positions" >
   <v>       0.00000000       0.00000000       0.00000000 </v>
   <v>      -0.50000000      -0.50000000      -0.50000000 </v>
  </varray>
 </structure>
 <varray name="primitive_index" >
  <v type="int" >        1 </v>
  <v type="int" >        2 </v>
 </varray>
 <kpoints>
  <generation param="Gamma">
   <v type="int" name="divisions">      15       15       15 </v>
   <v name="usershift">      0.00000000       0.00000000       0.00000000 </v>
   <v name="genvec1">      0.06666667      -0.00000000       0.00000000 </v>
   <v name="genvec2">      0.00000000       0.06666667       0.00000000 </v>
   <v name="genvec3">      0.00000000       0.00000000       0.06666667 </v>
   <v name="shift">      0.00000000       0.00000000       0.00000000 </v>
  </generation>
  <varray name="kpointlist" >
   <v>       0.00000000       0.00000000       0.00000000 </v>
   <v>       0.06666667       0.00000000       0.00000000 </v>
   <v>       0.13333333       0.00000000       0.00000000 </v>
   <v>       0.20000000       0.00000000      -0.00000000 </v>
   <v>       0.26666667       0.00000000      -0.00000000 </v>
   <v>       0.33333333       0.00000000      -0.00000000 </v>
   <v>       0.40000000       0.00000000      -0.00000000 </v>
   <v>       0.46666667      -0.00000000       0.00000000 </v>
   <v>       0.06666667       0.06666667       0.00000000 </v>
   <v>       0.13333333       0.06666667      -0.00000000 </v>
   <v>       0.20000000       0.06666667      -0.00000000 </v>
   <v>       0.26666667       0.06666667      -0.00000000 </v>
   <v>       0.33333333       0.06666667       0.00000000 </v>
   <v>       0.40000000       0.06666667       0.00000000 </v>
   <v>       0.46666667       0.06666667      -0.00000000 </v>
   <v>      -0.46666667       0.06666667       0.00000000 </v>
   <v>      -0.40000000       0.06666667      -0.00000000 </v>
   <v>      -0.33333333       0.06666667       0.00000000 </v>
   <v>      -0.26666667       0.06666667      -0.00000000 </v>
   <v>      -0.20000000       0.06666667      -0.00000000 </v>
   <v>      -0.13333333       0.06666667      -0.00000000 </v>
   <v>      -0.06666667       0.06666667       0.00000000 </v>
   <v>       0.13333333       0.13333333       0.00000000 </v>
   <v>       0.20000000       0.13333333       0.00000000 </v>
   <v>       0.26666667       0.13333333      -0.00000000 </v>
   <v>       0.33333333       0.13333333      -0.00000000 </v>
   <v>       0.40000000       0.13333333       0.00000000 </v>
   <v>       0.46666667       0.13333333       0.00000000 </v>
   <v>      -0.46666667       0.13333333       0.00000000 </v>
   <v>      -0.40000000       0.13333333      -0.00000000 </v>
   <v>      -0.33333333       0.13333333      -0.00000000 </v>
   <v>      -0.26666667       0.13333333      -0.00000000 </v>
   <v>      -0.20000000       0.13333333       0.00000000 </v>
   <v>      -0.13333333       0.13333333      -0.00000000 </v>
   <v>       0.20000000       0.20000000      -0.00000000 </v>
   <v>       0.26666667       0.20000000      -0.00000000 </v>
   <v>       0.33333333       0.20000000      -0.00000000 </v>
   <v>       0.40000000       0.20000000       0.00000000 </v>
   <v>       0.46666667       0.20000000      -0.00000000 </v>
   <v>      -0.46666667       0.20000000      -0.00000000 </v>
   <v>      -0.40000000       0.20000000      -0.00000000 </v>
   <v>      -0.33333333       0.20000000      -0.00000000 </v>
   <v>      -0.26666667       0.20000000       0.00000000 </v>
   <v>      -0.20000000       0.20000000      -0.00000000 </v>
   <v>       0.26666667       0.26666667       0.00000000 </v>
   <v>       0.33333333       0.26666667       0.00000000 </v>
   <v>       0.40000000       0.26666667       0.00000000 </v>
   <v>       0.46666667       0.26666667       0.00000000 </v>
   <v>      -0.46666667       0.26666667      -0.00000000 </v>
   <v>      -0.40000000       0.26666667       0.00000000 </v>
   <v>      -0.33333333       0.26666667      -0.00000000 </v>
   <v>      -0.26666667       0.26666667      -0.00000000 </v>
   <v>       0.33333333       0.33333333       0.00000000 </v>
   <v>       0.40000000       0.33333333       0.00000000 </v>
   <v>       0.46666667       0.33333333      -0.00000000 </v>
   <v>      -0.46666667       0.33333333       0.00000000 </v>
   <v>      -0.40000000       0.33333333       0.00000000 </v>
   <v>      -0.33333333       0.33333333      -0.00000000 </v>
   <v>       0.40000000       0.40000000      -0.00000000 </v>
   <v>       0.46666667       0.40000000       0.00000000 </v>
   <v>      -0.46666667       0.40000000      -0.00000000 </v>
   <v>      -0.40000000       0.40000000      -0.00000000 </v>
   <v>       0.46666667       0.46666667       0.00000000 </v>
   <v>      -0.46666667       0.46666667       0.00000000 </v>
   <v>       0.20000000       0.13333333       0.06666667 </v>
   <v>       0.26666667       0.13333333       0.06666667 </v>
   <v>       0.33333333       0.13333333       0.06666667 </v>
   <v>       0.40000000       0.13333333       0.06666667 </v>
   <v>       0.46666667       0.13333333       0.06666667 </v>
   <v>      -0.46666667       0.13333333       0.06666667 </v>
   <v>       0.26666667       0.20000000       0.06666667 </v>
   <v>       0.33333333       0.20000000       0.06666667 </v>
   <v>       0.40000000       0.20000000       0.06666667 </v>
   <v>       0.46666667       0.20000000       0.06666667 </v>
   <v>      -0.46666667       0.20000000       0.06666667 </v>
   <v>      -0.40000000       0.20000000       0.06666667 </v>
   <v>      -0.33333333       0.20000000       0.06666667 </v>
   <v>      -0.26666667       0.20000000       0.06666667 </v>
   <v>      -0.20000000       0.20000000       0.06666667 </v>
   <v>      -0.13333333       0.20000000       0.06666667 </v>
   <v>       0.33333333       0.26666667       0.06666667 </v>
   <v>       0.40000000       0.26666667       0.06666667 </v>
   <v>       0.46666667       0.26666667       0.06666667 </v>
   <v>      -0.46666667       0.26666667       0.06666667 </v>
   <v>      -0.40000000       0.26666667       0.06666667 </v>
   <v>      -0.33333333       0.26666667       0.06666667 </v>
   <v>      -0.26666667       0.26666667       0.06666667 </v>
   <v>      -0.20000000       0.26666667       0.06666667 </v>
   <v>       0.40000000       0.33333333       0.06666667 </v>
   <v>       0.46666667       0.33333333       0.06666667 </v>
   <v>      -0.46666667       0.33333333       0.06666667 </v>
   <v>      -0.40000000       0.33333333       0.06666667 </v>
   <v>      -0.33333333       0.33333333       0.06666667 </v>
   <v>      -0.26666667       0.33333333       0.06666667 </v>
   <v>       0.46666667       0.40000000       0.06666667 </v>
   <v>      -0.46666667       0.40000000       0.06666667 </v>
   <v>      -0.40000000       0.40000000       0.06666667 </v>
   <v>      -0.33333333       0.40000000       0.06666667 </v>
   <v>      -0.46666667       0.46666667       0.06666667 </v>
   <v>      -0.40000000       0.46666667       0.06666667 </v>
   <v>       0.40000000       0.26666667       0.13333333 </v>
   <v>       0.46666667       0.26666667       0.13333333 </v>
   <v>      -0.46666667       0.26666667       0.13333333 </v>
   <v>      -0.40000000       0.26666667       0.13333333 </v>
   <v>       0.46666667       0.33333333       0.13333333 </v>
   <v>      -0.46666667       0.33333333       0.13333333 </v>
   <v>      -0.40000000       0.33333333       0.13333333 </v>
   <v>      -0.33333333       0.33333333       0.13333333 </v>
   <v>      -0.26666667       0.33333333       0.13333333 </v>
   <v>      -0.20000000       0.33333333       0.13333333 </v>
   <v>      -0.46666667       0.40000000       0.13333333 </v>
   <v>      -0.40000000       0.40000000       0.13333333 </v>
   <v>      -0.33333333       0.40000000       0.13333333 </v>
   <v>      -0.26666667       0.40000000       0.13333333 </v>
   <v>      -0.40000000       0.46666667       0.13333333 </v>
   <v>      -0.33333333       0.46666667       0.13333333 </v>
   <v>      -0.40000000       0.40000000       0.20000000 </v>
   <v>      -0.33333333       0.40000000       0.20000000 </v>
   <v>      -0.33333333       0.46666667       0.20000000 </v>
   <v>      -0.26666667       0.46666667       0.20000000 </v>
  </varray>
  <varray name="weights" >
   <v>       0.00029630 </v>
   <v>       0.00237037 </v>
   <v>       0.00237037 </v>
   <v>       0.00237037 </v>
   <v>       0.00237037 </v>
   <v>       0.00237037 </v>
   <v>       0.00237037 </v>
   <v>       0.00237037 </v>
   <v>       0.00177778 </v>
   <v>       0.00711111 </v>
   <v>       0.00711111 </v>
   <v>       0.00711111 </v>
   <v>       0.00711111 </v>
   <v>       0.00711111 </v>
   <v>       0.00711111 </v>
   <v>       0.00711111 </v>
   <v>       0.00711111 </v>
   <v>       0.00711111 </v>
   <v>       0.00711111 </v>
   <v>       0.00711111 </v>
   <v>       0.00711111 </v>
   <v>       0.00355556 </v>
   <v>       0.00177778 </v>
   <v>       0.00711111 </v>
   <v>       0.00711111 </v>
   <v>       0.00711111 </v>
   <v>       0.00711111 </v>
   <v>       0.00711111 </v>
   <v>       0.00711111 </v>
   <v>       0.00711111 </v>
   <v>       0.00711111 </v>
   <v>       0.00711111 </v>
   <v>       0.00711111 </v>
   <v>       0.00355556 </v>
   <v>       0.00177778 </v>
   <v>       0.00711111 </v>
   <v>       0.00711111 </v>
   <v>       0.00711111 </v>
   <v>       0.00711111 </v>
   <v>       0.00711111 </v>
   <v>       0.00711111 </v>
   <v>       0.00711111 </v>
   <v>       0.00711111 </v>
   <v>       0.00355556 </v>
   <v>       0.00177778 </v>
   <v>       0.00711111 </v>
   <v>       0.00711111 </v>
   <v>       0.00711111 </v>
   <v>       0.00711111 </v>
   <v>       0.00711111 </v>
   <v>       0.00711111 </v>
   <v>       0.00355556 </v>
   <v>       0.00177778 </v>
   <v>       0.00711111 </v>
   <v>       0.00711111 </v>
   <v>       0.00711111 </v>
   <v>       0.00711111 </v>
   <v>       0.00355556 </v>
   <v>       0.00177778 </v>
   <v>       0.00711111 </v>
   <v>       0.00711111 </v>
   <v>       0.00355556 </v>
   <v>       0.00177778 </v>
   <v>       0.00355556 </v>
   <v>       0.00711111 </v>
   <v>       0.01422222 </v>
   <v>       0.01422222 </v>
   <v>       0.01422222 </v>
   <v>       0.01422222 </v>
   <v>       0.01422222 </v>
   <v>       0.00711111 </v>
   <v>       0.01422222 </v>
   <v>       0.01422222 </v>
   <v>       0.01422222 </v>
   <v>       0.01422222 </v>
   <v>       0.01422222 </v>
   <v>       0.01422222 </v>
   <v>       0.01422222 </v>
   <v>       0.01422222 </v>
   <v>       0.00711111 </v>
   <v>       0.00711111 </v>
   <v>       0.01422222 </v>
   <v>       0.01422222 </v>
   <v>       0.01422222 </v>
   <v>       0.01422222 </v>
   <v>       0.01422222 </v>
   <v>       0.01422222 </v>
   <v>       0.00711111 </v>
   <v>       0.00711111 </v>
   <v>       0.01422222 </v>
   <v>       0.01422222 </v>
   <v>       0.01422222 </v>
   <v>       0.01422222 </v>
   <v>       0.00711111 </v>
   <v>       0.00711111 </v>
   <v>       0.01422222 </v>
   <v>       0.01422222 </v>
   <v>       0.00711111 </v>
   <v>       0.00711111 </v>
   <v>       0.00711111 </v>
   <v>       0.00711111 </v>
   <v>       0.01422222 </v>
   <v>       0.01422222 </v>
   <v>       0.01422222 </v>
   <v>       0.00711111 </v>
   <v>       0.01422222 </v>
   <v>       0.01422222 </v>
   <v>       0.01422222 </v>
   <v>       0.01422222 </v>
   <v>       0.00711111 </v>
   <v>       0.00711111 </v>
   <v>       0.01422222 </v>
   <v>       0.01422222 </v>
   <v>       0.00711111 </v>
   <v>       0.00711111 </v>
   <v>       0.00711111 </v>
   <v>       0.00711111 </v>
   <v>       0.01422222 </v>
   <v>       0.00711111 </v>
   <v>       0.00711111 </v>
  </varray>
 </kpoints>
 <parameters>
  <separator name="general" >
   <i type="string" name="SYSTEM">r-GeO2 ENCUT convergence test</i>
   <i type="logical" name="LCOMPAT"> F  </i>
  </separator>
  <separator name="electronic" >
   <i type="string" name="PREC">accura</i>
   <i name="ENMAX">    500.00000000</i>
   <i name="ENAUG">    613.61400000</i>
   <i name="EDIFF">      0.00010000</i>
   <i type="int" name="IALGO">    38</i>
   <i type="int" name="IWAVPR">    10</i>
   <i type="int" name="NBANDS">    14</i>
   <i name="NELECT">     18.00000000</i>
   <i type="int" name="TURBO">     0</i>
   <i type="int" name="IRESTART">     0</i>
   <i type="int" name="NREBOOT">     0</i>
   <i type="int" name="NMIN">     0</i>
   <i name="EREF">      0.00000000</i>
   <separator name="electronic smearing" >
    <i type="int" name="ISMEAR">     0</i>
    <i name="SIGMA">      0.05000000</i>
    <i name="KSPACING">      0.50000000</i>
    <i type="logical" name="KGAMMA"> T  </i>
   </separator>
   <separator name="electronic projectors" >
    <i type="logical" name="LREAL"> F  </i>
    <v name="ROPT">      0.00000000      0.00000000</v>
    <i type="int" name="LMAXPAW">  -100</i>
    <i type="int" name="LMAXMIX">     2</i>
    <i type="logical" name="NLSPLINE"> F  </i>
   </separator>
   <separator name="electronic startup" >
    <i type="int" name="ISTART">     0</i>
    <i type="int" name="ICHARG">     2</i>
    <i type="int" name="INIWAV">     1</i>
   </separator>
   <separator name="electronic spin" >
    <i type="int" name="ISPIN">     1</i>
    <i type="logical" name="LNONCOLLINEAR"> F  </i>
    <v name="MAGMOM">      1.00000000      1.00000000</v>
    <i name="NUPDOWN">     -1.00000000</i>
    <i type="logical" name="LSORBIT"> F  </i>
    <v name="SAXIS">      0.00000000      0.00000000      1.00000000</v>
    <i type="logical" name="LSPIRAL"> F  </i>
    <v name="QSPIRAL">      0.00000000      0.00000000      0.00000000</v>
    <i type="logical" name="LZEROZ"> F  </i>
   </separator>
   <separator name="electronic exchange-correlation" >
    <i type="logical" name="LASPH"> T  </i>
    <i type="logical" name="LMETAGGA"> F  </i>
   </separator>
   <separator name="electronic convergence" >
    <i type="int" name="NELM">    60</i>
    <i type="int" name="NELMDL">    -5</i>
    <i type="int" name="NELMIN">     2</i>
    <i name="ENINI">    500.00000000</i>
    <separator name="electronic convergence detail" >
     <i type="logical" name="LDIAG"> T  </i>
     <i type="logical" name="LSUBROT"> F  </i>
     <i name="WEIMIN">      0.00000000</i>
     <i name="EBREAK">      0.00000179</i>
     <i name="DEPER">      0.30000000</i>
     <i type="int" name="NRMM">     4</i>
     <i name="TIME">      0.40000000</i>
    </separator>
   </separator>
   <separator name="electronic mixer" >
    <i name="AMIX">      0.40000000</i>
    <i name="BMIX">      1.00000000</i>
    <i name="AMIN">      0.10000000</i>
    <i name="AMIX_MAG">      1.60000000</i>
    <i name="BMIX_MAG">      1.00000000</i>
    <separator name="electronic mixer details" >
     <i type="int" name="IMIX">     4</i>
     <i type="logical" name="MIXFIRST"> F  </i>
     <i type="int" name="MAXMIX">   -45</i>
     <i name="WC">    100.00000000</i>
     <i type="int" name="INIMIX">     1</i>
     <i type="int" name="MIXPRE">     1</i>
     <i type="int" name="MREMOVE">     5</i>
    </separator>
   </separator>
   <separator name="electronic dipolcorrection" >
    <i type="logical" name="LDIPOL"> F  </i>
    <i type="logical" name="LMONO"> F  </i>
    <i type="int" name="IDIPOL">     0</i>
    <i name="EPSILON">      1.00000000</i>
    <v name="DIPOL">   -100.00000000   -100.00000000   -100.00000000</v>
    <i name="EFIELD">      0.00000000</i>
   </separator>
  </separator>
  <separator name="grids" >
   <i type="int" name="NGX">    28</i>
   <i type="int" name="NGY">    28</i>
   <i type="int" name="NGZ">    28</i>
   <i type="int" name="NGXF">    56</i>
   <i type="int" name="NGYF">    56</i>
   <i type="int" name="NGZF">    56</i>
   <i type="logical" name="ADDGRID"> F  </i>
  </separator>
  <separator name="ionic" >
   <i type="int" name="NSW">     0</i>
   <i type="int" name="IBRION">    -1</i>
   <i type="int" name="MDALGO">     0</i>
   <i type="int" name="ISIF">     2</i>
   <i name="PSTRESS">      0.00000000</i>
   <i name="EDIFFG">      0.00100000</i>
   <i type="int" name="NFREE">     0</i>
   <i name="POTIM">      0.50000000</i>
   <i name="SMASS">     -3.00000000</i>
   <i name="SCALEE">      1.00000000</i>
  </separator>
  <separator name="ionic md" >
   <i name="TEBEG">      0.00010000</i>
   <i name="TEEND">      0.00010000</i>
   <i type="int" name="NBLOCK">     1</i>
   <i type="int" name="KBLOCK">     1</i>
   <i type="int" name="NPACO">   256</i>
   <i name="APACO">     16.00000000</i>
  </separator>
  <separator name="symmetry" >
   <i type="int" name="ISYM">     2</i>
   <i name="SYMPREC">      0.00001000</i>
  </separator>
  <separator name="dos" >
   <i type="int" name="LORBIT">    11</i>
   <v name="RWIGS">     -1.00000000     -1.00000000</v>
   <i type="int" name="NEDOS">   301</i>
   <i name="EMIN">     10.00000000</i>
   <i name="EMAX">    -10.00000000</i>
   <i name="EFERMI">      0.00000000</i>
  </separator>
  <separator name="writing" >
   <i type="int" name="NWRITE">     2</i>
   <i type="logical" name="LWAVE"> F  </i>
   <i type="logical" name="LDOWNSAMPLE"> F  </i>
   <i type="logical" name="LCHARG"> F  </i>
   <i type="logical" name="LPARD"> F  </i>
   <i type="logical" name="LVTOT"> F  </i>
   <i type="logical" name="LVHAR"> F  </i>
   <i type="logical" name="LELF"> F  </i>
   <i type="logical" name="LOPTICS"> F  </i>
   <v name="STM">      0.00000000      0.00000000      0.00000000      0.00000000      0.00000000      0.00000000      0.00000000</v>
  </separator>
  <separator name="performance" >
   <i type="int" name="NPAR">     2</i>
   <i type="int" name="NSIM">     4</i>
   <i type="int" name="NBLK">    -1</i>
   <i type="logical" name="LPLANE"> T  </i>
   <i type="logical" name="LSCALAPACK"> T  </i>
   <i type="logical" name="LSCAAWARE"> F  </i>
   <i type="logical" name="LSCALU"> F  </i>
   <i type="logical" name="LASYNC"> F  </i>
   <i type="logical" name="LORBITALREAL"> F  </i>
  </separator>
  <separator name="miscellaneous" >
   <i type="int" name="IDIOT">     3</i>
   <i type="int" name="ISPECIAL">     0</i>
   <i type="logical" name="LMUSIC"> F  </i>
   <v name="POMASS">    107.86800000     18.99800000</v>
   <v name="DARWINR">      0.00000000      0.00000000</v>
   <v name="DARWINV">      1.00000000      1.00000000</v>
   <i type="logical" name="LCORR"> T  </i>
  </separator>
  <i type="logical" name="GGA_COMPAT"> T  </i>
  <i type="logical" name="LBERRY"> F  </i>
  <i type="int" name="ICORELEVEL">     0</i>
  <i type="logical" name="LDAU"> F  </i>
  <i type="int" name="I_CONSTRAINED_M">     0</i>
  <separator name="electronic exchange-correlation" >
   <i type="string" name="GGA">--</i>
   <i type="int" name="VOSKOWN">     0</i>
   <i type="logical" name="LHFCALC"> F  </i>
   <i type="string" name="PRECFOCK"></i>
   <i type="logical" name="LSYMGRAD"> F  </i>
   <i type="logical" name="LHFONE"> F  </i>
   <i type="logical" name="LRHFCALC"> F  </i>
   <i type="logical" name="LTHOMAS"> F  </i>
   <i type="logical" name="LMODELHF"> F  </i>
   <i name="ENCUT4O">     -1.00000000</i>
   <i type="int" name="EXXOEP">     0</i>
   <i type="int" name="FOURORBIT">     0</i>
   <i name="AEXX">      0.00000000</i>
   <i name="HFALPHA">      0.00000000</i>
   <i name="MCALPHA">      0.00000000</i>
   <i name="ALDAX">      1.00000000</i>
   <i name="AGGAX">      1.00000000</i>
   <i name="ALDAC">      1.00000000</i>
   <i name="AGGAC">      1.00000000</i>
   <i type="int" name="NKREDX">     1</i>
   <i type="int" name="NKREDY">     1</i>
   <i type="int" name="NKREDZ">     1</i>
   <i type="logical" name="SHIFTRED"> F  </i>
   <i type="logical" name="ODDONLY"> F  </i>
   <i type="logical" name="EVENONLY"> F  </i>
   <i type="int" name="LMAXFOCK">     0</i>
   <i type="int" name="NMAXFOCKAE">     0</i>
   <i type="logical" name="LFOCKAEDFT"> F  </i>
   <i name="HFSCREEN">      0.00000000</i>
   <i name="HFSCREENC">      0.00000000</i>
   <i type="int" name="NBANDSGWLOW">     0</i>
  </separator>
  <separator name="vdW DFT" >
   <i type="logical" name="LUSE_VDW"> F  </i>
   <i name="Zab_VDW">     -0.84910000</i>
   <i name="PARAM1">      0.12340000</i>
   <i name="PARAM2">      1.00000000</i>
   <i name="PARAM3">      0.00000000</i>
  </separator>
  <separator name="model GW" >
   <i type="int" name="MODEL_GW">     0</i>
   <i name="MODEL_EPS0">      8.94181849</i>
   <i name="MODEL_ALPHA">      1.00000000</i>
  </separator>
  <separator name="linear response parameters" >
   <i type="logical" name="LEPSILON"> F  </i>
   <i type="logical" name="LRPA"> F  </i>
   <i type="logical" name="LNABLA"> F  </i>
   <i type="logical" name="LVEL"> F  </i>
   <i type="int" name="KINTER">     0</i>
   <i name="CSHIFT">      0.10000000</i>
   <i name="OMEGAMAX">     -1.00000000</i>
   <i name="DEG_THRESHOLD">      0.00200000</i>
   <i name="RTIME">     -0.10000000</i>
   <i name="WPLASMAI">      0.00000000</i>
   <v name="DFIELD">      0.00000000      0.00000000      0.00000000</v>
   <v name="WPLASMA">      0.00000000      0.00000000      0.00000000      0.00000000      0.00000000      0.00000000      0.00000000      0.00000000      0.00000000</v>
  </separator>
  <separator name="orbital magnetization" >
   <i type="logical" name="NUCIND"> F  </i>
   <v name="MAGPOS">      0.00000000      0.00000000      0.00000000</v>
   <i type="logical" name="LNICSALL"> T  </i>
   <i type="logical" name="ORBITALMAG"> F  </i>
   <i type="logical" name="LMAGBLOCH"> F  </i>
   <i type="logical" name="LCHIMAG"> F  </i>
   <i type="logical" name="LGAUGE"> T  </i>
   <i type="int" name="MAGATOM">     0</i>
   <v name="MAGDIPOL">      0.00000000      0.00000000      0.00000000</v>
   <v name="AVECCONST">      0.00000000      0.00000000      0.00000000</v>
  </separator>
  <separator name="response functions" >
   <i type="logical" name="LADDER"> F  </i>
   <i type="logical" name="LRPAFORCE"> F  </i>
   <i type="logical" name="LFXC"> F  </i>
   <i type="logical" name="LHARTREE"> T  </i>
   <i type="int" name="IBSE">     0</i>
   <v type="int" name="KPOINT">    -1     0     0     0</v>
   <i type="logical" name="LTCTE"> F  </i>
   <i type="logical" name="LTETE"> F  </i>
   <i type="logical" name="LTRIPLET"> F  </i>
   <i type="logical" name="LFXCEPS"> F  </i>
   <i type="logical" name="LFXHEG"> F  </i>
   <i type="int" name="NATURALO">     2</i>
   <i type="logical" name="L2ORDER"> F  </i>
   <i type="logical" name="LMP2LT"> F  </i>
   <i type="logical" name="LUSEW"> F  </i>
   <i name="ENCUTGW">     -2.00000000</i>
   <i name="ENCUTGWSOFT">     -2.00000000</i>
   <i name="ENCUTLF">     -1.00000000</i>
   <i type="int" name="LMAXMP2">    -1</i>
   <i name="SCISSOR">      0.00000000</i>
   <i type="int" name="NOMEGA">     0</i>
   <i type="int" name="NOMEGAR">     0</i>
   <i type="int" name="NBANDSGW">    -1</i>
   <i type="int" name="NBANDSO">    -1</i>
   <i type="int" name="NBANDSV">    -1</i>
   <i type="int" name="NELM">     1</i>
   <i type="int" name="NELMHF">     1</i>
   <i type="int" name="DIM">     3</i>
   <i type="int" name="ANTIRES">     0</i>
   <i name="OMEGAMAX">    -30.00000000</i>
   <i name="OMEGAMIN">    -30.00000000</i>
   <i name="OMEGATL">   -200.00000000</i>
   <i type="int" name="OMEGAGRID">   140</i>
   <i name="CSHIFT">     -0.10000000</i>
   <i type="logical" name="SELFENERGY"> F  </i>
   <i type="logical" name="LSPECTRAL"> F  </i>
   <i type="logical" name="LSPECTRALGW"> F  </i>
   <i type="logical" name="LSINGLES"> F  </i>
   <i type="logical" name="LFERMIGW"> F  </i>
   <i type="logical" name="ODDONLYGW"> F  </i>
   <i type="logical" name="EVENONLYGW"> F  </i>
   <i type="int" name="NKREDLFX">     1</i>
   <i type="int" name="NKREDLFY">     1</i>
   <i type="int" name="NKREDLFZ">     1</i>
   <i type="int" name="MAXMEM">  2800</i>
   <i type="int" name="TELESCOPE">     0</i>
   <i type="int" name="TAUPAR">     1</i>
   <i type="int" name="OMEGAPAR">    -1</i>
   <i name="LAMBDA">      1.00000000</i>
  </separator>
  <separator name="External order field" >
   <i name="OFIELD_KAPPA">      0.00000000</i>
   <v name="OFIELD_K">      0.00000000      0.00000000      0.00000000</v>
   <i name="OFIELD_Q6_NEAR">      0.00000000</i>
   <i name="OFIELD_Q6_FAR">      0.00000000</i>
   <i name="OFIELD_A">      0.00000000</i>
  </separator>
 </parameters>
 <atominfo>
  <atoms>       2 </atoms>
  <types>       2 </types>
  <array name="atoms" >
   <dimension dim="1">ion</dimension>
   <field type="string">element</field>
   <field type="int">atomtype</field>
   <set>
    <rc><c>Ag</c><c>   1</c></rc>
    <rc><c>F </c><c>   2</c></rc>
   </set>
  </array>
  <array name="atomtypes" >
   <dimension dim="1">type</dimension>
   <field type="int">atomspertype</field>
   <field type="string">element</field>
   <field>mass</field>
   <field>valence</field>
   <field type="string">pseudopotential</field>
   <set>
    <rc><c>   1</c><c>Ag</c><c>    107.86800000</c><c>     11.00000000</c><c>  PAW_PBE Ag 02Apr2005                  </c></rc>
    <rc><c>   1</c><c>F </c><c>     18.99800000</c><c>      7.00000000</c><c>  PAW_PBE F 08Apr2002                   </c></rc>
   </set>
  </array>
 </atominfo>
 <structure name="initialpos" >
  <crystal>
   <varray name="basis" >
    <v>       3.01395775       0.00000000       1.74010806 </v>
    <v>       1.00465292       2.84158622       1.74010806 </v>
    <v>      -0.00000002      -0.00000001       3.48021917 </v>
   </varray>
   <i name="volume">     29.80606162 </i>
   <varray name="rec_basis" >
    <v>       0.33178965      -0.11730541       0.00000000 </v>
    <v>      -0.00000000       0.35191612       0.00000000 </v>
    <v>      -0.16589468      -0.11730525       0.28733822 </v>
   </varray>
  </crystal>
  <varray name="positions" >
   <v>       0.00000000       0.00000000       0.00000000 </v>
   <v>       0.50000000       0.50000000       0.50000000 </v>
  </varray>
 </structure>
 <calculation>
  <scstep>
   <time name="dav">    0.86    0.86</time>
   <time name="total">    0.95    0.95</time>
   <energy>
    <i name="alphaZ">     61.84911921 </i>
    <i name="ewald">  -1385.69313289 </i>
    <i name="hartreedc">   -411.39312044 </i>
    <i name="XCdc">     25.89960310 </i>
    <i name="pawpsdc">   1542.66995988 </i>
    <i name="pawaedc">  -1501.65866420 </i>
    <i name="eentropy">     -0.00125928 </i>
    <i name="bandstr">     72.87845715 </i>
    <i name="atom">   1696.87438208 </i>
    <i name="e_fr_energy">    101.42534461 </i>
    <i name="e_wo_entrp">    101.42660389 </i>
    <i name="e_0_energy">    101.42597425 </i>
   </energy>
  </scstep>
  <scstep>
   <time name="dav">    0.92    0.92</time>
   <time name="total">    0.92    0.92</time>
   <energy>
    <i name="e_fr_energy">     -4.33077424 </i>
    <i name="e_wo_entrp">     -4.32994707 </i>
    <i name="e_0_energy">     -4.33036065 </i>
   </energy>
  </scstep>
  <scstep>
   <time name="dav">    0.92    0.92</time>
   <time name="total">    0.92    0.92</time>
   <energy>
    <i name="e_fr_energy">     -7.21520471 </i>
    <i name="e_wo_entrp">     -7.21353832 </i>
    <i name="e_0_energy">     -7.21437152 </i>
   </energy>
  </scstep>
  <scstep>
   <time name="dav">    0.91    0.91</time>
   <time name="total">    0.91    0.91</time>
   <energy>
    <i name="e_fr_energy">     -7.22603225 </i>
    <i name="e_wo_entrp">     -7.22436649 </i>
    <i name="e_0_energy">     -7.22519937 </i>
   </energy>
  </scstep>
  <scstep>
   <time name="dav">    0.93    0.93</time>
   <time name="total">    1.01    1.01</time>
   <energy>
    <i name="e_fr_energy">     -7.22610275 </i>
    <i name="e_wo_entrp">     -7.22443698 </i>
    <i name="e_0_energy">     -7.22526986 </i>
   </energy>
  </scstep>
  <scstep>
   <time name="dav">    0.89    0.89</time>
   <time name="total">    1.06    1.06</time>
   <energy>
    <i name="e_fr_energy">     -6.45155710 </i>
    <i name="e_wo_entrp">     -6.45082401 </i>
    <i name="e_0_energy">     -6.45119055 </i>
   </energy>
  </scstep>
  <scstep>
   <time name="dav">    0.84    0.84</time>
   <time name="total">    1.01    1.01</time>
   <energy>
    <i name="e_fr_energy">     -6.41142471 </i>
    <i name="e_wo_entrp">     -6.41054376 </i>
    <i name="e_0_energy">     -6.41098424 </i>
   </energy>
  </scstep>
  <scstep>
   <time name="dav">    0.86    0.86</time>
   <time name="total">    1.03    1.03</time>
   <energy>
    <i name="e_fr_energy">     -6.40183065 </i>
    <i name="e_wo_entrp">     -6.40097490 </i>
    <i name="e_0_energy">     -6.40140278 </i>
   </energy>
  </scstep>
  <scstep>
   <time name="dav">    0.87    0.87</time>
   <time name="total">    1.04    1.04</time>
   <energy>
    <i name="e_fr_energy">     -6.40044199 </i>
    <i name="e_wo_entrp">     -6.39957931 </i>
    <i name="e_0_energy">     -6.40001065 </i>
   </energy>
  </scstep>
  <scstep>
   <time name="dav">    0.87    0.87</time>
   <time name="total">    1.04    1.04</time>
   <energy>
    <i name="e_fr_energy">     -6.40057114 </i>
    <i name="e_wo_entrp">     -6.39971589 </i>
    <i name="e_0_energy">     -6.40014352 </i>
   </energy>
  </scstep>
  <scstep>
   <time name="dav">    0.57    0.57</time>
   <time name="total">    0.66    0.66</time>
   <energy>
    <i name="alphaZ">     61.84911921 </i>
    <i name="ewald">  -1385.69313289 </i>
    <i name="hartreedc">   -425.03359816 </i>
    <i name="XCdc">     26.67861278 </i>
    <i name="pawpsdc">   1655.80947087 </i>
    <i name="pawaedc">  -1614.20527469 </i>
    <i name="eentropy">     -0.00085255 </i>
    <i name="bandstr">    -22.67930497 </i>
    <i name="atom">   1696.87438208 </i>
    <i name="e_fr_energy">     -6.40057832 </i>
    <i name="e_wo_entrp">     -6.39972578 </i>
    <i name="e_0_energy">     -6.40015205 </i>
   </energy>
  </scstep>
  <structure>
   <crystal>
    <varray name="basis" >
     <v>       3.01395775       0.00000000       1.74010806 </v>
     <v>       1.00465292       2.84158622       1.74010806 </v>
     <v>      -0.00000002      -0.00000001       3.48021917 </v>
    </varray>
    <i name="volume">     29.80606162 </i>
    <varray name="rec_basis" >
     <v>       0.33178965      -0.11730541       0.00000000 </v>
     <v>      -0.00000000       0.35191612       0.00000000 </v>
     <v>      -0.16589468      -0.11730525       0.28733822 </v>
    </varray>
   </crystal>
   <varray name="positions" >
    <v>       0.00000000       0.00000000       0.00000000 </v>
    <v>       0.50000000       0.50000000       0.50000000 </v>
   </varray>
  </structure>
  <varray name="forces" >
   <v>       0.00000000      -0.00000000       0.00000000 </v>
   <v>      -0.00000000       0.00000000      -0.00000000 </v>
  </varray>
  <varray name="stress" >
   <v>      36.57846605       0.00000448      -0.00001872 </v>
   <v>       0.00000448      36.57845566      -0.00001319 </v>
   <v>      -0.00001872      -0.00001319      36.57847703 </v>
  </varray>
  <energy>
   <i name="e_fr_energy">     -6.40057832 </i>
   <i name="e_wo_entrp">     -6.40015205 </i>
   <i name="e_0_energy">     -0.00085255 </i>
  </energy>
  <time name="totalsc">   11.11   11.12</time>
  <eigenvalues>
   <array>
    <dimension dim="1">band</dimension>
    <dimension dim="2">kpoint</dimension>
    <dimension dim="3">spin</dimension>
    <field>eigene</field>
    <field>occ</field>
    <set>
     <set comment="spin 1">
      <set comment="kpoint 1">
       <r>  -18.9299    1.0000 </r>
       <r>   -0.0348    1.0000 </r>
       <r>   -0.0348    1.0000 </r>
       <r>   -0.0348    1.0000 </r>
       <r>    1.4176    1.0000 </r>
       <r>    1.4176    1.0000 </r>
       <r>    1.4176    1.0000 </r>
       <r>    1.7851    1.0000 </r>
       <r>    1.7851    1.0000 </r>
       <r>    2.7949    1.0000 </r>
       <r>   18.6106    0.0000 </r>
       <r>   21.4721    0.0000 </r>
       <r>   21.4721    0.0000 </r>
       <r>   21.4722    0.0000 </r>
      </set>
      <set comment="kpoint 2">
       <r>  -18.9222    1.0000 </r>
       <r>   -0.2012    1.0000 </r>
       <r>   -0.1224    1.0000 </r>
       <r>   -0.1224    1.0000 </r>
       <r>    1.4455    1.0000 </r>
       <r>    1.4455    1.0000 </r>
       <r>    1.4533    1.0000 </r>
       <r>    1.8811    1.0000 </r>
       <r>    1.8811    1.0000 </r>
       <r>    3.0041    1.0000 </r>
       <r>   18.2678    0.0000 </r>
       <r>   20.2824    0.0000 </r>
       <r>   20.7090    0.0000 </r>
       <r>   20.7090    0.0000 </r>
      </set>
      <set comment="kpoint 3">
       <r>  -18.9024    1.0000 </r>
       <r>   -0.5822    1.0000 </r>
       <r>   -0.3322    1.0000 </r>
       <r>   -0.3322    1.0000 </r>
       <r>    1.5175    1.0000 </r>
       <r>    1.5175    1.0000 </r>
       <r>    1.5353    1.0000 </r>
       <r>    2.1227    1.0000 </r>
       <r>    2.1227    1.0000 </r>
       <r>    3.5395    0.0000 </r>
       <r>   17.0255    0.0000 </r>
       <r>   19.7641    0.0000 </r>
       <r>   19.7641    0.0000 </r>
       <r>   19.9230    0.0000 </r>
      </set>
      <set comment="kpoint 4">
       <r>  -18.8729    1.0000 </r>
       <r>   -1.0175    1.0000 </r>
       <r>   -0.5807    1.0000 </r>
       <r>   -0.5807    1.0000 </r>
       <r>    1.6190    1.0000 </r>
       <r>    1.6190    1.0000 </r>
       <r>    1.6451    1.0000 </r>
       <r>    2.4263    1.0000 </r>
       <r>    2.4263    1.0000 </r>
       <r>    4.2625    0.0000 </r>
       <r>   15.3876    0.0000 </r>
       <r>   18.8087    0.0000 </r>
       <r>   18.8087    0.0000 </r>
       <r>   20.0801    0.0000 </r>
      </set>
      <set comment="kpoint 5">
       <r>  -18.8378    1.0000 </r>
       <r>   -1.4226    1.0000 </r>
       <r>   -0.8155    1.0000 </r>
       <r>   -0.8155    1.0000 </r>
       <r>    1.7355    1.0000 </r>
       <r>    1.7355    1.0000 </r>
       <r>    1.7746    1.0000 </r>
       <r>    2.7304    1.0000 </r>
       <r>    2.7304    1.0000 </r>
       <r>    5.0968    0.0000 </r>
       <r>   13.7386    0.0000 </r>
       <r>   17.9323    0.0000 </r>
       <r>   17.9323    0.0000 </r>
       <r>   20.4097    0.0000 </r>
      </set>
      <set comment="kpoint 6">
       <r>  -18.8049    1.0000 </r>
       <r>   -1.7544    1.0000 </r>
       <r>   -1.0088    1.0000 </r>
       <r>   -1.0088    1.0000 </r>
       <r>    1.8486    1.0000 </r>
       <r>    1.8486    1.0000 </r>
       <r>    1.9079    1.0000 </r>
       <r>    2.9947    1.0000 </r>
       <r>    2.9947    1.0000 </r>
       <r>    6.0093    0.0000 </r>
       <r>   12.1832    0.0000 </r>
       <r>   17.2058    0.0000 </r>
       <r>   17.2058    0.0000 </r>
       <r>   20.8252    0.0000 </r>
      </set>
      <set comment="kpoint 7">
       <r>  -18.7784    1.0000 </r>
       <r>   -1.9880    1.0000 </r>
       <r>   -1.1447    1.0000 </r>
       <r>   -1.1447    1.0000 </r>
       <r>    1.9385    1.0000 </r>
       <r>    1.9385    1.0000 </r>
       <r>    2.0203    1.0000 </r>
       <r>    3.1896    1.0000 </r>
       <r>    3.1896    1.0000 </r>
       <r>    6.9837    0.0000 </r>
       <r>   10.7666    0.0000 </r>
       <r>   16.6860    0.0000 </r>
       <r>   16.6860    0.0000 </r>
       <r>   21.2928    0.0000 </r>
      </set>
      <set comment="kpoint 8">
       <r>  -18.7640    1.0000 </r>
       <r>   -2.1084    1.0000 </r>
       <r>   -1.2146    1.0000 </r>
       <r>   -1.2146    1.0000 </r>
       <r>    1.9882    1.0000 </r>
       <r>    1.9882    1.0000 </r>
       <r>    2.0852    1.0000 </r>
       <r>    3.2932    0.8779 </r>
       <r>    3.2932    0.8779 </r>
       <r>    7.9468    0.0000 </r>
       <r>    9.5779    0.0000 </r>
       <r>   16.4146    0.0000 </r>
       <r>   16.4146    0.0000 </r>
       <r>   21.7312    0.0000 </r>
      </set>
      <set comment="kpoint 9">
       <r>  -18.9201    1.0000 </r>
       <r>   -0.3466    1.0000 </r>
       <r>   -0.0839    1.0000 </r>
       <r>   -0.0839    1.0000 </r>
       <r>    1.3912    1.0000 </r>
       <r>    1.4925    1.0000 </r>
       <r>    1.4925    1.0000 </r>
       <r>    1.7980    1.0000 </r>
       <r>    1.9558    1.0000 </r>
       <r>    3.0971    1.0000 </r>
       <r>   18.3034    0.0000 </r>
       <r>   20.0790    0.0000 </r>
       <r>   20.0790    0.0000 </r>
       <r>   20.7422    0.0000 </r>
      </set>
      <set comment="kpoint 10">
       <r>  -18.9049    1.0000 </r>
       <r>   -0.6477    1.0000 </r>
       <r>   -0.2346    1.0000 </r>
       <r>   -0.2033    1.0000 </r>
       <r>    1.3983    1.0000 </r>
       <r>    1.5724    1.0000 </r>
       <r>    1.5792    1.0000 </r>
       <r>    1.9090    1.0000 </r>
       <r>    2.1306    1.0000 </r>
       <r>    3.5489    0.0000 </r>
       <r>   17.5246    0.0000 </r>
       <r>   19.2204    0.0000 </r>
       <r>   19.3462    0.0000 </r>
       <r>   20.3801    0.0000 </r>
      </set>
      <set comment="kpoint 11">
       <r>  -18.8791    1.0000 </r>
       <r>   -0.9955    1.0000 </r>
       <r>   -0.5017    1.0000 </r>
       <r>   -0.4187    1.0000 </r>
       <r>    1.4597    1.0000 </r>
       <r>    1.6677    1.0000 </r>
       <r>    1.6878    1.0000 </r>
       <r>    2.1598    1.0000 </r>
       <r>    2.4045    1.0000 </r>
       <r>    4.2016    0.0000 </r>
       <r>   15.9825    0.0000 </r>
       <r>   18.5232    0.0000 </r>
       <r>   18.5687    0.0000 </r>
       <r>   20.3994    0.0000 </r>
      </set>
      <set comment="kpoint 12">
       <r>  -18.8462    1.0000 </r>
       <r>   -1.3449    1.0000 </r>
       <r>   -0.7690    1.0000 </r>
       <r>   -0.6581    1.0000 </r>
       <r>    1.5597    1.0000 </r>
       <r>    1.7762    1.0000 </r>
       <r>    1.8093    1.0000 </r>
       <r>    2.4613    1.0000 </r>
       <r>    2.7004    1.0000 </r>
       <r>    4.9766    0.0000 </r>
       <r>   14.3201    0.0000 </r>
       <r>   17.7807    0.0000 </r>
       <r>   17.8173    0.0000 </r>
       <r>   20.6306    0.0000 </r>
      </set>
      <set comment="kpoint 13">
       <r>  -18.8130    1.0000 </r>
       <r>   -1.6561    1.0000 </r>
       <r>   -0.9854    1.0000 </r>
       <r>   -0.8768    1.0000 </r>
       <r>    1.6840    1.0000 </r>
       <r>    1.8810    1.0000 </r>
       <r>    1.9283    1.0000 </r>
       <r>    2.7583    1.0000 </r>
       <r>    2.9581    1.0000 </r>
       <r>    5.8414    0.0000 </r>
       <r>   12.7303    0.0000 </r>
       <r>   17.0695    0.0000 </r>
       <r>   17.1648    0.0000 </r>
       <r>   20.9712    0.0000 </r>
      </set>
      <set comment="kpoint 14">
       <r>  -18.7847    1.0000 </r>
       <r>   -1.8962    1.0000 </r>
       <r>   -1.1342    1.0000 </r>
       <r>   -1.0502    1.0000 </r>
       <r>    1.8125    1.0000 </r>
       <r>    1.9620    1.0000 </r>
       <r>    2.0245    1.0000 </r>
       <r>    3.0145    1.0000 </r>
       <r>    3.1403    1.0000 </r>
       <r>    6.7822    0.0000 </r>
       <r>   11.2673    0.0000 </r>
       <r>   16.4890    0.0000 </r>
       <r>   16.6771    0.0000 </r>
       <r>   21.3805    0.0000 </r>
      </set>
      <set comment="kpoint 15">
       <r>  -18.7664    1.0000 </r>
       <r>   -2.0419    1.0000 </r>
       <r>   -1.2096    1.0000 </r>
       <r>   -1.1645    1.0000 </r>
       <r>    1.9196    1.0000 </r>
       <r>    2.0024    1.0000 </r>
       <r>    2.0792    1.0000 </r>
       <r>    3.2012    0.9999 </r>
       <r>    3.2245    0.9991 </r>
       <r>    7.7748    0.0000 </r>
       <r>    9.9722    0.0000 </r>
       <r>   16.1039    0.0000 </r>
       <r>   16.4070    0.0000 </r>
       <r>   21.8506    0.0000 </r>
      </set>
      <set comment="kpoint 16">
       <r>  -18.7618    1.0000 </r>
       <r>   -2.0803    1.0000 </r>
       <r>   -1.2127    1.0000 </r>
       <r>   -1.2101    1.0000 </r>
       <r>    1.9770    1.0000 </r>
       <r>    1.9936    1.0000 </r>
       <r>    2.0854    1.0000 </r>
       <r>    3.2013    0.9999 </r>
       <r>    3.2964    0.8581 </r>
       <r>    8.3276    0.0000 </r>
       <r>    9.3437    0.0000 </r>
       <r>   15.9497    0.0000 </r>
       <r>   16.3901    0.0000 </r>
       <r>   22.2704    0.0000 </r>
      </set>
      <set comment="kpoint 17">
       <r>  -18.7710    1.0000 </r>
       <r>   -2.0079    1.0000 </r>
       <r>   -1.1922    1.0000 </r>
       <r>   -1.1368    1.0000 </r>
       <r>    1.9367    1.0000 </r>
       <r>    1.9565    1.0000 </r>
       <r>    2.0581    1.0000 </r>
       <r>    3.0750    1.0000 </r>
       <r>    3.2883    0.9036 </r>
       <r>    7.4478    0.0000 </r>
       <r>   10.3759    0.0000 </r>
       <r>   16.0330    0.0000 </r>
       <r>   16.6403    0.0000 </r>
       <r>   21.8807    0.0000 </r>
      </set>
      <set comment="kpoint 18">
       <r>  -18.7930    1.0000 </r>
       <r>   -1.8296    1.0000 </r>
       <r>   -1.1047    1.0000 </r>
       <r>   -0.9940    1.0000 </r>
       <r>    1.8424    1.0000 </r>
       <r>    1.8669    1.0000 </r>
       <r>    2.0021    1.0000 </r>
       <r>    2.8624    1.0000 </r>
       <r>    3.1776    1.0000 </r>
       <r>    6.4612    0.0000 </r>
       <r>   11.7372    0.0000 </r>
       <r>   16.3316    0.0000 </r>
       <r>   17.1488    0.0000 </r>
       <r>   21.4384    0.0000 </r>
      </set>
      <set comment="kpoint 19">
       <r>  -18.8235    1.0000 </r>
       <r>   -1.5585    1.0000 </r>
       <r>   -0.9558    1.0000 </r>
       <r>   -0.7911    1.0000 </r>
       <r>    1.7278    1.0000 </r>
       <r>    1.7508    1.0000 </r>
       <r>    1.9093    1.0000 </r>
       <r>    2.5901    1.0000 </r>
       <r>    2.9772    1.0000 </r>
       <r>    5.5360    0.0000 </r>
       <r>   13.2477    0.0000 </r>
       <r>   16.7998    0.0000 </r>
       <r>   17.8873    0.0000 </r>
       <r>   21.0606    0.0000 </r>
      </set>
      <set comment="kpoint 20">
       <r>  -18.8573    1.0000 </r>
       <r>   -1.2166    1.0000 </r>
       <r>   -0.7564    1.0000 </r>
       <r>   -0.5473    1.0000 </r>
       <r>    1.6129    1.0000 </r>
       <r>    1.6399    1.0000 </r>
       <r>    1.7901    1.0000 </r>
       <r>    2.2945    1.0000 </r>
       <r>    2.7098    1.0000 </r>
       <r>    4.6872    0.0000 </r>
       <r>   14.8688    0.0000 </r>
       <r>   17.3798    0.0000 </r>
       <r>   18.8127    0.0000 </r>
       <r>   20.7576    0.0000 </r>
      </set>
      <set comment="kpoint 21">
       <r>  -18.8883    1.0000 </r>
       <r>   -0.8359    1.0000 </r>
       <r>   -0.5251    1.0000 </r>
       <r>   -0.3028    1.0000 </r>
       <r>    1.5169    1.0000 </r>
       <r>    1.5500    1.0000 </r>
       <r>    1.6629    1.0000 </r>
       <r>    2.0304    1.0000 </r>
       <r>    2.4063    1.0000 </r>
       <r>    3.9357    0.0000 </r>
       <r>   16.5063    0.0000 </r>
       <r>   18.0480    0.0000 </r>
       <r>   19.8651    0.0000 </r>
       <r>   20.5473    0.0000 </r>
      </set>
      <set comment="kpoint 22">
       <r>  -18.9112    1.0000 </r>
       <r>   -0.4650    1.0000 </r>
       <r>   -0.2947    1.0000 </r>
       <r>   -0.1353    1.0000 </r>
       <r>    1.4563    1.0000 </r>
       <r>    1.4798    1.0000 </r>
       <r>    1.5453    1.0000 </r>
       <r>    1.8813    1.0000 </r>
       <r>    2.1096    1.0000 </r>
       <r>    3.3339    0.5051 </r>
       <r>   17.7588    0.0000 </r>
       <r>   19.0588    0.0000 </r>
       <r>   20.4493    0.0000 </r>
       <r>   20.8671    0.0000 </r>
      </set>
      <set comment="kpoint 23">
       <r>  -18.8955    1.0000 </r>
       <r>   -0.8822    1.0000 </r>
       <r>   -0.1933    1.0000 </r>
       <r>   -0.1933    1.0000 </r>
       <r>    1.3172    1.0000 </r>
       <r>    1.6715    1.0000 </r>
       <r>    1.6715    1.0000 </r>
       <r>    1.8348    1.0000 </r>
       <r>    2.1266    1.0000 </r>
       <r>    3.9213    0.0000 </r>
       <r>   17.7337    0.0000 </r>
       <r>   18.8012    0.0000 </r>
       <r>   18.8012    0.0000 </r>
       <r>   18.8210    0.0000 </r>
      </set>
      <set comment="kpoint 24">
       <r>  -18.8746    1.0000 </r>
       <r>   -1.1368    1.0000 </r>
       <r>   -0.3455    1.0000 </r>
       <r>   -0.3117    1.0000 </r>
       <r>    1.3095    1.0000 </r>
       <r>    1.7554    1.0000 </r>
       <r>    1.7751    1.0000 </r>
       <r>    1.9638    1.0000 </r>
       <r>    2.2666    1.0000 </r>
       <r>    4.4839    0.0000 </r>
       <r>   16.6394    0.0000 </r>
       <r>   17.6931    0.0000 </r>
       <r>   18.1966    0.0000 </r>
       <r>   19.1233    0.0000 </r>
      </set>
      <set comment="kpoint 25">
       <r>  -18.8469    1.0000 </r>
       <r>   -1.3773    1.0000 </r>
       <r>   -0.6084    1.0000 </r>
       <r>   -0.5079    1.0000 </r>
       <r>    1.3686    1.0000 </r>
       <r>    1.8424    1.0000 </r>
       <r>    1.8819    1.0000 </r>
       <r>    2.2134    1.0000 </r>
       <r>    2.5090    1.0000 </r>
       <r>    5.1608    0.0000 </r>
       <r>   14.9651    0.0000 </r>
       <r>   16.9803    0.0000 </r>
       <r>   17.5887    0.0000 </r>
       <r>   19.6979    0.0000 </r>
      </set>
      <set comment="kpoint 26">
       <r>  -18.8168    1.0000 </r>
       <r>   -1.5903    1.0000 </r>
       <r>   -0.8733    1.0000 </r>
       <r>   -0.7227    1.0000 </r>
       <r>    1.4755    1.0000 </r>
       <r>    1.9333    1.0000 </r>
       <r>    1.9832    1.0000 </r>
       <r>    2.5015    1.0000 </r>
       <r>    2.7544    1.0000 </r>
       <r>    5.9329    0.0000 </r>
       <r>   13.3544    0.0000 </r>
       <r>   16.3226    0.0000 </r>
       <r>   17.0402    0.0000 </r>
       <r>   20.2696    0.0000 </r>
      </set>
      <set comment="kpoint 27">
       <r>  -18.7893    1.0000 </r>
       <r>   -1.7672    1.0000 </r>
       <r>   -1.0743    1.0000 </r>
       <r>   -0.9164    1.0000 </r>
       <r>    1.6131    1.0000 </r>
       <r>    2.0030    1.0000 </r>
       <r>    2.0603    1.0000 </r>
       <r>    2.7860    1.0000 </r>
       <r>    2.9353    1.0000 </r>
       <r>    6.7989    0.0000 </r>
       <r>   11.8732    0.0000 </r>
       <r>   15.7459    0.0000 </r>
       <r>   16.6139    0.0000 </r>
       <r>   20.7774    0.0000 </r>
      </set>
      <set comment="kpoint 28">
       <r>  -18.7694    1.0000 </r>
       <r>   -1.8955    1.0000 </r>
       <r>   -1.1841    1.0000 </r>
       <r>   -1.0661    1.0000 </r>
       <r>    1.7589    1.0000 </r>
       <r>    2.0337    1.0000 </r>
       <r>    2.0963    1.0000 </r>
       <r>    3.0164    1.0000 </r>
       <r>    3.0323    1.0000 </r>
       <r>    7.7587    0.0000 </r>
       <r>   10.5336    0.0000 </r>
       <r>   15.2991    0.0000 </r>
       <r>   16.3645    0.0000 </r>
       <r>   21.2301    0.0000 </r>
      </set>
      <set comment="kpoint 29">
       <r>  -18.7604    1.0000 </r>
       <r>   -1.9584    1.0000 </r>
       <r>   -1.1995    1.0000 </r>
       <r>   -1.1593    1.0000 </r>
       <r>    1.8839    1.0000 </r>
       <r>    2.0177    1.0000 </r>
       <r>    2.0848    1.0000 </r>
       <r>    2.9875    1.0000 </r>
       <r>    3.2105    0.9998 </r>
       <r>    8.7476    0.0000 </r>
       <r>    9.3990    0.0000 </r>
       <r>   15.0229    0.0000 </r>
       <r>   16.3332    0.0000 </r>
       <r>   21.6800    0.0000 </r>
      </set>
      <set comment="kpoint 30">
       <r>  -18.7643    1.0000 </r>
       <r>   -1.9433    1.0000 </r>
       <r>   -1.1901    1.0000 </r>
       <r>   -1.1282    1.0000 </r>
       <r>    1.9422    1.0000 </r>
       <r>    1.9575    1.0000 </r>
       <r>    2.0507    1.0000 </r>
       <r>    2.8579    1.0000 </r>
       <r>    3.2979    0.8489 </r>
       <r>    8.1413    0.0000 </r>
       <r>   10.0867    0.0000 </r>
       <r>   14.9376    0.0000 </r>
       <r>   16.5418    0.0000 </r>
       <r>   22.1656    0.0000 </r>
      </set>
      <set comment="kpoint 31">
       <r>  -18.7803    1.0000 </r>
       <r>   -1.8461    1.0000 </r>
       <r>   -1.1573    1.0000 </r>
       <r>   -0.9828    1.0000 </r>
       <r>    1.8641    1.0000 </r>
       <r>    1.8851    1.0000 </r>
       <r>    2.0426    1.0000 </r>
       <r>    2.6522    1.0000 </r>
       <r>    3.2833    0.9256 </r>
       <r>    7.1344    0.0000 </r>
       <r>   11.3955    0.0000 </r>
       <r>   15.0377    0.0000 </r>
       <r>   16.9903    0.0000 </r>
       <r>   22.4594    0.0000 </r>
      </set>
      <set comment="kpoint 32">
       <r>  -18.8051    1.0000 </r>
       <r>   -1.6720    1.0000 </r>
       <r>   -1.0640    1.0000 </r>
       <r>   -0.7827    1.0000 </r>
       <r>    1.7547    1.0000 </r>
       <r>    1.7910    1.0000 </r>
       <r>    2.0015    1.0000 </r>
       <r>    2.4069    1.0000 </r>
       <r>    3.1685    1.0000 </r>
       <r>    6.1964    0.0000 </r>
       <r>   12.8504    0.0000 </r>
       <r>   15.2964    0.0000 </r>
       <r>   17.6544    0.0000 </r>
       <r>   22.1467    0.0000 </r>
      </set>
      <set comment="kpoint 33">
       <r>  -18.8350    1.0000 </r>
       <r>   -1.4325    1.0000 </r>
       <r>   -0.9178    1.0000 </r>
       <r>   -0.5622    1.0000 </r>
       <r>    1.6486    1.0000 </r>
       <r>    1.7069    1.0000 </r>
       <r>    1.9091    1.0000 </r>
       <r>    2.1727    1.0000 </r>
       <r>    2.9670    1.0000 </r>
       <r>    5.3365    0.0000 </r>
       <r>   14.4271    0.0000 </r>
       <r>   15.6843    0.0000 </r>
       <r>   18.4801    0.0000 </r>
       <r>   21.7007    0.0000 </r>
      </set>
      <set comment="kpoint 34">
       <r>  -18.8644    1.0000 </r>
       <r>   -1.1447    1.0000 </r>
       <r>   -0.7314    1.0000 </r>
       <r>   -0.3790    1.0000 </r>
       <r>    1.5642    1.0000 </r>
       <r>    1.6281    1.0000 </r>
       <r>    1.7920    1.0000 </r>
       <r>    2.0223    1.0000 </r>
       <r>    2.7022    1.0000 </r>
       <r>    4.5698    0.0000 </r>
       <r>   15.8819    0.0000 </r>
       <r>   16.3880    0.0000 </r>
       <r>   19.3387    0.0000 </r>
       <r>   21.1672    0.0000 </r>
      </set>
      <set comment="kpoint 35">
       <r>  -18.8605    1.0000 </r>
       <r>   -1.3058    1.0000 </r>
       <r>   -0.3030    1.0000 </r>
       <r>   -0.3030    1.0000 </r>
       <r>    1.2100    1.0000 </r>
       <r>    1.8746    1.0000 </r>
       <r>    1.8746    1.0000 </r>
       <r>    1.8893    1.0000 </r>
       <r>    2.2100    1.0000 </r>
       <r>    4.9527    0.0000 </r>
       <r>   16.7119    0.0000 </r>
       <r>   17.2056    0.0000 </r>
       <r>   17.7528    0.0000 </r>
       <r>   17.7528    0.0000 </r>
      </set>
      <set comment="kpoint 36">
       <r>  -18.8394    1.0000 </r>
       <r>   -1.4560    1.0000 </r>
       <r>   -0.4375    1.0000 </r>
       <r>   -0.4019    1.0000 </r>
       <r>    1.1980    1.0000 </r>
       <r>    1.9174    1.0000 </r>
       <r>    1.9657    1.0000 </r>
       <r>    2.0455    1.0000 </r>
       <r>    2.3075    1.0000 </r>
       <r>    5.5261    0.0000 </r>
       <r>   15.3881    0.0000 </r>
       <r>   16.3738    0.0000 </r>
       <r>   17.2867    0.0000 </r>
       <r>   18.2443    0.0000 </r>
      </set>
      <set comment="kpoint 37">
       <r>  -18.8148    1.0000 </r>
       <r>   -1.5713    1.0000 </r>
       <r>   -0.6808    1.0000 </r>
       <r>   -0.5702    1.0000 </r>
       <r>    1.2664    1.0000 </r>
       <r>    1.9931    1.0000 </r>
       <r>    2.0464    1.0000 </r>
       <r>    2.2693    1.0000 </r>
       <r>    2.4840    1.0000 </r>
       <r>    6.1887    0.0000 </r>
       <r>   13.8968    0.0000 </r>
       <r>   15.6176    0.0000 </r>
       <r>   16.8509    0.0000 </r>
       <r>   18.9703    0.0000 </r>
      </set>
      <set comment="kpoint 38">
       <r>  -18.7910    1.0000 </r>
       <r>   -1.6505    1.0000 </r>
       <r>   -0.9315    1.0000 </r>
       <r>   -0.7577    1.0000 </r>
       <r>    1.3898    1.0000 </r>
       <r>    2.0538    1.0000 </r>
       <r>    2.1047    1.0000 </r>
       <r>    2.5364    1.0000 </r>
       <r>    2.6440    1.0000 </r>
       <r>    6.9496    0.0000 </r>
       <r>   12.4949    0.0000 </r>
       <r>   14.9633    0.0000 </r>
       <r>   16.5002    0.0000 </r>
       <r>   19.6274    0.0000 </r>
      </set>
      <set comment="kpoint 39">
       <r>  -18.7715    1.0000 </r>
       <r>   -1.7069    1.0000 </r>
       <r>   -1.1137    1.0000 </r>
       <r>   -0.9278    1.0000 </r>
       <r>    1.5459    1.0000 </r>
       <r>    2.0770    1.0000 </r>
       <r>    2.1259    1.0000 </r>
       <r>    2.7276    1.0000 </r>
       <r>    2.8085    1.0000 </r>
       <r>    7.8212    0.0000 </r>
       <r>   11.2156    0.0000 </r>
       <r>   14.4151    0.0000 </r>
       <r>   16.2847    0.0000 </r>
       <r>   20.1917    0.0000 </r>
      </set>
      <set comment="kpoint 40">
       <r>  -18.7604    1.0000 </r>
       <r>   -1.7584    1.0000 </r>
       <r>   -1.1791    1.0000 </r>
       <r>   -1.0588    1.0000 </r>
       <r>    1.7094    1.0000 </r>
       <r>    2.0571    1.0000 </r>
       <r>    2.1050    1.0000 </r>
       <r>    2.7130    1.0000 </r>
       <r>    3.0461    1.0000 </r>
       <r>    8.8094    0.0000 </r>
       <r>   10.0482    0.0000 </r>
       <r>   14.0075    0.0000 </r>
       <r>   16.2436    0.0000 </r>
       <r>   20.7143    0.0000 </r>
      </set>
      <set comment="kpoint 41">
       <r>  -18.7592    1.0000 </r>
       <r>   -1.7970    1.0000 </r>
       <r>   -1.1388    1.0000 </r>
       <r>   -1.1275    1.0000 </r>
       <r>    1.8474    1.0000 </r>
       <r>    1.9979    1.0000 </r>
       <r>    2.0532    1.0000 </r>
       <r>    2.6106    1.0000 </r>
       <r>    3.2169    0.9996 </r>
       <r>    8.9557    0.0000 </r>
       <r>    9.9328    0.0000 </r>
       <r>   13.7716    0.0000 </r>
       <r>   16.3994    0.0000 </r>
       <r>   21.2774    0.0000 </r>
      </set>
      <set comment="kpoint 42">
       <r>  -18.7687    1.0000 </r>
       <r>   -1.7940    1.0000 </r>
       <r>   -1.1629    1.0000 </r>
       <r>   -0.9957    1.0000 </r>
       <r>    1.9075    1.0000 </r>
       <r>    1.9108    1.0000 </r>
       <r>    2.0125    1.0000 </r>
       <r>    2.4531    1.0000 </r>
       <r>    3.2983    0.8459 </r>
       <r>    7.9447    0.0000 </r>
       <r>   11.1714    0.0000 </r>
       <r>   13.7168    0.0000 </r>
       <r>   16.7526    0.0000 </r>
       <r>   21.9356    0.0000 </r>
      </set>
      <set comment="kpoint 43">
       <r>  -18.7867    1.0000 </r>
       <r>   -1.7326    1.0000 </r>
       <r>   -1.1309    1.0000 </r>
       <r>   -0.8260    1.0000 </r>
       <r>    1.8119    1.0000 </r>
       <r>    1.8707    1.0000 </r>
       <r>    1.9988    1.0000 </r>
       <r>    2.2926    1.0000 </r>
       <r>    3.2802    0.9371 </r>
       <r>    6.9955    0.0000 </r>
       <r>   12.5454    0.0000 </r>
       <r>   13.8285    0.0000 </r>
       <r>   17.2756    0.0000 </r>
       <r>   22.6853    0.0000 </r>
      </set>
      <set comment="kpoint 44">
       <r>  -18.8103    1.0000 </r>
       <r>   -1.6102    1.0000 </r>
       <r>   -1.0467    1.0000 </r>
       <r>   -0.6650    1.0000 </r>
       <r>    1.7191    1.0000 </r>
       <r>    1.8037    1.0000 </r>
       <r>    1.9567    1.0000 </r>
       <r>    2.1844    1.0000 </r>
       <r>    3.1651    1.0000 </r>
       <r>    6.1192    0.0000 </r>
       <r>   14.0168    0.0000 </r>
       <r>   14.1126    0.0000 </r>
       <r>   17.8986    0.0000 </r>
       <r>   22.2583    0.0000 </r>
      </set>
      <set comment="kpoint 45">
       <r>  -18.8259    1.0000 </r>
       <r>   -1.5263    1.0000 </r>
       <r>   -0.3803    1.0000 </r>
       <r>   -0.3803    1.0000 </r>
       <r>    1.0891    1.0000 </r>
       <r>    1.9526    1.0000 </r>
       <r>    2.0443    1.0000 </r>
       <r>    2.0443    1.0000 </r>
       <r>    2.2180    1.0000 </r>
       <r>    5.9914    0.0000 </r>
       <r>   14.7326    0.0000 </r>
       <r>   16.7904    0.0000 </r>
       <r>   16.9499    0.0000 </r>
       <r>   16.9499    0.0000 </r>
      </set>
      <set comment="kpoint 46">
       <r>  -18.8084    1.0000 </r>
       <r>   -1.5653    1.0000 </r>
       <r>   -0.4935    1.0000 </r>
       <r>   -0.4556    1.0000 </r>
       <r>    1.0842    1.0000 </r>
       <r>    2.0236    1.0000 </r>
       <r>    2.1067    1.0000 </r>
       <r>    2.1377    1.0000 </r>
       <r>    2.2550    1.0000 </r>
       <r>    6.5379    0.0000 </r>
       <r>   13.7394    0.0000 </r>
       <r>   15.6960    0.0000 </r>
       <r>   16.6222    0.0000 </r>
       <r>   17.6657    0.0000 </r>
      </set>
      <set comment="kpoint 47">
       <r>  -18.7899    1.0000 </r>
       <r>   -1.5666    1.0000 </r>
       <r>   -0.7194    1.0000 </r>
       <r>   -0.5986    1.0000 </r>
       <r>    1.1719    1.0000 </r>
       <r>    2.1014    1.0000 </r>
       <r>    2.1485    1.0000 </r>
       <r>    2.3104    1.0000 </r>
       <r>    2.3459    1.0000 </r>
       <r>    7.1789    0.0000 </r>
       <r>   12.7231    0.0000 </r>
       <r>   14.6947    0.0000 </r>
       <r>   16.3495    0.0000 </r>
       <r>   18.4406    0.0000 </r>
      </set>
      <set comment="kpoint 48">
       <r>  -18.7732    1.0000 </r>
       <r>   -1.5382    1.0000 </r>
       <r>   -0.9620    1.0000 </r>
       <r>   -0.7649    1.0000 </r>
       <r>    1.3176    1.0000 </r>
       <r>    2.1250    1.0000 </r>
       <r>    2.1583    1.0000 </r>
       <r>    2.4171    1.0000 </r>
       <r>    2.5608    1.0000 </r>
       <r>    7.9299    0.0000 </r>
       <r>   11.7549    0.0000 </r>
       <r>   13.8437    0.0000 </r>
       <r>   16.1746    0.0000 </r>
       <r>   19.1285    0.0000 </r>
      </set>
      <set comment="kpoint 49">
       <r>  -18.7615    1.0000 </r>
       <r>   -1.5201    1.0000 </r>
       <r>   -1.1309    1.0000 </r>
       <r>   -0.9200    1.0000 </r>
       <r>    1.4933    1.0000 </r>
       <r>    2.1054    1.0000 </r>
       <r>    2.1350    1.0000 </r>
       <r>    2.4279    1.0000 </r>
       <r>    2.8243    1.0000 </r>
       <r>    8.7799    0.0000 </r>
       <r>   10.8546    0.0000 </r>
       <r>   13.1653    0.0000 </r>
       <r>   16.1303    0.0000 </r>
       <r>   19.7485    0.0000 </r>
      </set>
      <set comment="kpoint 50">
       <r>  -18.7569    1.0000 </r>
       <r>   -1.5829    1.0000 </r>
       <r>   -1.1385    1.0000 </r>
       <r>   -1.0426    1.0000 </r>
       <r>    1.6708    1.0000 </r>
       <r>    2.0516    1.0000 </r>
       <r>    2.0898    1.0000 </r>
       <r>    2.3786    1.0000 </r>
       <r>    3.0550    1.0000 </r>
       <r>    9.4241    0.0000 </r>
       <r>   10.2901    0.0000 </r>
       <r>   12.7088    0.0000 </r>
       <r>   16.2346    0.0000 </r>
       <r>   20.3748    0.0000 </r>
      </set>
      <set comment="kpoint 51">
       <r>  -18.7601    1.0000 </r>
       <r>   -1.6767    1.0000 </r>
       <r>   -1.1212    1.0000 </r>
       <r>   -1.0391    1.0000 </r>
       <r>    1.8194    1.0000 </r>
       <r>    1.9749    1.0000 </r>
       <r>    2.0367    1.0000 </r>
       <r>    2.3043    1.0000 </r>
       <r>    3.2201    0.9994 </r>
       <r>    8.7824    0.0000 </r>
       <r>   11.1133    0.0000 </r>
       <r>   12.5018    0.0000 </r>
       <r>   16.4852    0.0000 </r>
       <r>   21.0736    0.0000 </r>
      </set>
      <set comment="kpoint 52">
       <r>  -18.7706    1.0000 </r>
       <r>   -1.7331    1.0000 </r>
       <r>   -1.1509    1.0000 </r>
       <r>   -0.9199    1.0000 </r>
       <r>    1.8898    1.0000 </r>
       <r>    1.9227    1.0000 </r>
       <r>    1.9680    1.0000 </r>
       <r>    2.2651    1.0000 </r>
       <r>    3.2984    0.8455 </r>
       <r>    7.8779    0.0000 </r>
       <r>   12.1771    0.0000 </r>
       <r>   12.6609    0.0000 </r>
       <r>   16.8531    0.0000 </r>
       <r>   21.8636    0.0000 </r>
      </set>
      <set comment="kpoint 53">
       <r>  -18.7986    1.0000 </r>
       <r>   -1.5443    1.0000 </r>
       <r>   -0.4188    1.0000 </r>
       <r>   -0.4188    1.0000 </r>
       <r>    0.9758    1.0000 </r>
       <r>    2.0139    1.0000 </r>
       <r>    2.1309    1.0000 </r>
       <r>    2.1550    1.0000 </r>
       <r>    2.1550    1.0000 </r>
       <r>    6.9627    0.0000 </r>
       <r>   13.0072    0.0000 </r>
       <r>   16.3879    0.0000 </r>
       <r>   16.3879    0.0000 </r>
       <r>   16.4934    0.0000 </r>
      </set>
      <set comment="kpoint 54">
       <r>  -18.7858    1.0000 </r>
       <r>   -1.4973    1.0000 </r>
       <r>   -0.5164    1.0000 </r>
       <r>   -0.4755    1.0000 </r>
       <r>    0.9876    1.0000 </r>
       <r>    2.0947    1.0000 </r>
       <r>    2.1058    1.0000 </r>
       <r>    2.1862    1.0000 </r>
       <r>    2.1982    1.0000 </r>
       <r>    7.4760    0.0000 </r>
       <r>   12.2437    0.0000 </r>
       <r>   15.2761    0.0000 </r>
       <r>   16.1868    0.0000 </r>
       <r>   17.2984    0.0000 </r>
      </set>
      <set comment="kpoint 55">
       <r>  -18.7737    1.0000 </r>
       <r>   -1.4253    1.0000 </r>
       <r>   -0.7360    1.0000 </r>
       <r>   -0.6023    1.0000 </r>
       <r>    1.1006    1.0000 </r>
       <r>    2.1216    1.0000 </r>
       <r>    2.1671    1.0000 </r>
       <r>    2.2020    1.0000 </r>
       <r>    2.3308    1.0000 </r>
       <r>    8.0915    0.0000 </r>
       <r>   11.5999    0.0000 </r>
       <r>   14.1528    0.0000 </r>
       <r>   16.0532    0.0000 </r>
       <r>   18.1010    0.0000 </r>
      </set>
      <set comment="kpoint 56">
       <r>  -18.7635    1.0000 </r>
       <r>   -1.3408    1.0000 </r>
       <r>   -0.9904    1.0000 </r>
       <r>   -0.7582    1.0000 </r>
       <r>    1.2698    1.0000 </r>
       <r>    2.1297    1.0000 </r>
       <r>    2.1545    1.0000 </r>
       <r>    2.2046    1.0000 </r>
       <r>    2.5752    1.0000 </r>
       <r>    8.7870    0.0000 </r>
       <r>   11.1449    0.0000 </r>
       <r>   13.0656    0.0000 </r>
       <r>   16.0138    0.0000 </r>
       <r>   18.8272    0.0000 </r>
      </set>
      <set comment="kpoint 57">
       <r>  -18.7569    1.0000 </r>
       <r>   -1.3257    1.0000 </r>
       <r>   -1.1597    1.0000 </r>
       <r>   -0.9095    1.0000 </r>
       <r>    1.4628    1.0000 </r>
       <r>    2.1094    1.0000 </r>
       <r>    2.1285    1.0000 </r>
       <r>    2.1915    1.0000 </r>
       <r>    2.8329    1.0000 </r>
       <r>    9.3946    0.0000 </r>
       <r>   10.9955    0.0000 </r>
       <r>   12.0843    0.0000 </r>
       <r>   16.0802    0.0000 </r>
       <r>   19.5251    0.0000 </r>
      </set>
      <set comment="kpoint 58">
       <r>  -18.7554    1.0000 </r>
       <r>   -1.5062    1.0000 </r>
       <r>   -1.1077    1.0000 </r>
       <r>   -1.0346    1.0000 </r>
       <r>    1.6535    1.0000 </r>
       <r>    2.0454    1.0000 </r>
       <r>    2.0979    1.0000 </r>
       <r>    2.2126    1.0000 </r>
       <r>    3.0582    1.0000 </r>
       <r>    9.4102    0.0000 </r>
       <r>   11.3044    0.0000 </r>
       <r>   11.5617    0.0000 </r>
       <r>   16.2459    0.0000 </r>
       <r>   20.2623    0.0000 </r>
      </set>
      <set comment="kpoint 59">
       <r>  -18.7798    1.0000 </r>
       <r>   -1.4261    1.0000 </r>
       <r>   -0.4287    1.0000 </r>
       <r>   -0.4287    1.0000 </r>
       <r>    0.8887    1.0000 </r>
       <r>    1.9651    1.0000 </r>
       <r>    2.0622    1.0000 </r>
       <r>    2.2096    1.0000 </r>
       <r>    2.2096    1.0000 </r>
       <r>    7.8538    0.0000 </r>
       <r>   11.5899    0.0000 </r>
       <r>   16.0433    0.0000 </r>
       <r>   16.0433    0.0000 </r>
       <r>   16.3046    0.0000 </r>
      </set>
      <set comment="kpoint 60">
       <r>  -18.7730    1.0000 </r>
       <r>   -1.3510    1.0000 </r>
       <r>   -0.5207    1.0000 </r>
       <r>   -0.4763    1.0000 </r>
       <r>    0.9235    1.0000 </r>
       <r>    1.9204    1.0000 </r>
       <r>    2.1417    1.0000 </r>
       <r>    2.2178    1.0000 </r>
       <r>    2.2197    1.0000 </r>
       <r>    8.3187    0.0000 </r>
       <r>   11.0469    0.0000 </r>
       <r>   15.0360    0.0000 </r>
       <r>   15.9476    0.0000 </r>
       <r>   17.0949    0.0000 </r>
      </set>
      <set comment="kpoint 61">
       <r>  -18.7661    1.0000 </r>
       <r>   -1.2790    1.0000 </r>
       <r>   -0.7452    1.0000 </r>
       <r>   -0.5977    1.0000 </r>
       <r>    1.0626    1.0000 </r>
       <r>    1.9487    1.0000 </r>
       <r>    2.1957    1.0000 </r>
       <r>    2.2088    1.0000 </r>
       <r>    2.3380    1.0000 </r>
       <r>    8.8250    0.0000 </r>
       <r>   10.7461    0.0000 </r>
       <r>   13.8953    0.0000 </r>
       <r>   15.9202    0.0000 </r>
       <r>   17.9357    0.0000 </r>
      </set>
      <set comment="kpoint 62">
       <r>  -18.7602    1.0000 </r>
       <r>   -1.2223    1.0000 </r>
       <r>   -1.0209    1.0000 </r>
       <r>   -0.7535    1.0000 </r>
       <r>    1.2528    1.0000 </r>
       <r>    2.0343    1.0000 </r>
       <r>    2.1610    1.0000 </r>
       <r>    2.1834    1.0000 </r>
       <r>    2.5803    1.0000 </r>
       <r>    9.2191    0.0000 </r>
       <r>   10.8235    0.0000 </r>
       <r>   12.7785    0.0000 </r>
       <r>   15.9676    0.0000 </r>
       <r>   18.7274    0.0000 </r>
      </set>
      <set comment="kpoint 63">
       <r>  -18.7708    1.0000 </r>
       <r>   -1.3004    1.0000 </r>
       <r>   -0.4272    1.0000 </r>
       <r>   -0.4272    1.0000 </r>
       <r>    0.8416    1.0000 </r>
       <r>    1.8186    1.0000 </r>
       <r>    2.0889    1.0000 </r>
       <r>    2.2280    1.0000 </r>
       <r>    2.2280    1.0000 </r>
       <r>    8.5899    0.0000 </r>
       <r>   10.5843    0.0000 </r>
       <r>   15.8825    0.0000 </r>
       <r>   15.8825    0.0000 </r>
       <r>   16.2133    0.0000 </r>
      </set>
      <set comment="kpoint 64">
       <r>  -18.7686    1.0000 </r>
       <r>   -1.2741    1.0000 </r>
       <r>   -0.5204    1.0000 </r>
       <r>   -0.4741    1.0000 </r>
       <r>    0.9011    1.0000 </r>
       <r>    1.8311    1.0000 </r>
       <r>    2.1596    1.0000 </r>
       <r>    2.2220    1.0000 </r>
       <r>    2.2247    1.0000 </r>
       <r>    8.7937    0.0000 </r>
       <r>   10.4523    0.0000 </r>
       <r>   14.9578    0.0000 </r>
       <r>   15.8725    0.0000 </r>
       <r>   17.0298    0.0000 </r>
      </set>
      <set comment="kpoint 65">
       <r>  -18.8870    1.0000 </r>
       <r>   -0.9340    1.0000 </r>
       <r>   -0.4225    1.0000 </r>
       <r>   -0.2504    1.0000 </r>
       <r>    1.3982    1.0000 </r>
       <r>    1.6531    1.0000 </r>
       <r>    1.6917    1.0000 </r>
       <r>    1.9407    1.0000 </r>
       <r>    2.3302    1.0000 </r>
       <r>    4.0635    0.0000 </r>
       <r>   16.9038    0.0000 </r>
       <r>   17.6548    0.0000 </r>
       <r>   19.5661    0.0000 </r>
       <r>   19.8083    0.0000 </r>
      </set>
      <set comment="kpoint 66">
       <r>  -18.8600    1.0000 </r>
       <r>   -1.2281    1.0000 </r>
       <r>   -0.6646    1.0000 </r>
       <r>   -0.4233    1.0000 </r>
       <r>    1.4556    1.0000 </r>
       <r>    1.7358    1.0000 </r>
       <r>    1.8146    1.0000 </r>
       <r>    2.0975    1.0000 </r>
       <r>    2.6140    1.0000 </r>
       <r>    4.7380    0.0000 </r>
       <r>   15.4895    0.0000 </r>
       <r>   16.7852    0.0000 </r>
       <r>   18.7259    0.0000 </r>
       <r>   20.3048    0.0000 </r>
      </set>
      <set comment="kpoint 67">
       <r>  -18.8288    1.0000 </r>
       <r>   -1.5014    1.0000 </r>
       <r>   -0.8894    1.0000 </r>
       <r>   -0.6536    1.0000 </r>
       <r>    1.5514    1.0000 </r>
       <r>    1.8252    1.0000 </r>
       <r>    1.9314    1.0000 </r>
       <r>    2.3506    1.0000 </r>
       <r>    2.8837    1.0000 </r>
       <r>    5.5196    0.0000 </r>
       <r>   13.8523    0.0000 </r>
       <r>   16.2488    0.0000 </r>
       <r>   17.8833    0.0000 </r>
       <r>   20.8274    0.0000 </r>
      </set>
      <set comment="kpoint 68">
       <r>  -18.7988    1.0000 </r>
       <r>   -1.7323    1.0000 </r>
       <r>   -1.0633    1.0000 </r>
       <r>   -0.8741    1.0000 </r>
       <r>    1.6734    1.0000 </r>
       <r>    1.9182    1.0000 </r>
       <r>    2.0183    1.0000 </r>
       <r>    2.6240    1.0000 </r>
       <r>    3.0916    1.0000 </r>
       <r>    6.3901    0.0000 </r>
       <r>   12.3107    0.0000 </r>
       <r>   15.8102    0.0000 </r>
       <r>   17.1649    0.0000 </r>
       <r>   21.3059    0.0000 </r>
      </set>
      <set comment="kpoint 69">
       <r>  -18.7753    1.0000 </r>
       <r>   -1.9005    1.0000 </r>
       <r>   -1.1701    1.0000 </r>
       <r>   -1.0489    1.0000 </r>
       <r>    1.8028    1.0000 </r>
       <r>    1.9882    1.0000 </r>
       <r>    2.0643    1.0000 </r>
       <r>    2.8648    1.0000 </r>
       <r>    3.2131    0.9997 </r>
       <r>    7.3422    0.0000 </r>
       <r>   10.9053    0.0000 </r>
       <r>   15.4912    0.0000 </r>
       <r>   16.6409    0.0000 </r>
       <r>   21.7307    0.0000 </r>
      </set>
      <set comment="kpoint 70">
       <r>  -18.7623    1.0000 </r>
       <r>   -1.9893    1.0000 </r>
       <r>   -1.2040    1.0000 </r>
       <r>   -1.1601    1.0000 </r>
       <r>    1.9110    1.0000 </r>
       <r>    1.9988    1.0000 </r>
       <r>    2.0837    1.0000 </r>
       <r>    3.0220    1.0000 </r>
       <r>    3.2498    0.9916 </r>
       <r>    8.3477    0.0000 </r>
       <r>    9.6723    0.0000 </r>
       <r>   15.3232    0.0000 </r>
       <r>   16.3636    0.0000 </r>
       <r>   22.0761    0.0000 </r>
      </set>
      <set comment="kpoint 71">
       <r>  -18.8538    1.0000 </r>
       <r>   -1.3383    1.0000 </r>
       <r>   -0.5113    1.0000 </r>
       <r>   -0.3678    1.0000 </r>
       <r>    1.3001    1.0000 </r>
       <r>    1.8579    1.0000 </r>
       <r>    1.8610    1.0000 </r>
       <r>    2.0149    1.0000 </r>
       <r>    2.4176    1.0000 </r>
       <r>    5.0578    0.0000 </r>
       <r>   16.1131    0.0000 </r>
       <r>   16.1371    0.0000 </r>
       <r>   18.0927    0.0000 </r>
       <r>   18.9992    0.0000 </r>
      </set>
      <set comment="kpoint 72">
       <r>  -18.8276    1.0000 </r>
       <r>   -1.5118    1.0000 </r>
       <r>   -0.7364    1.0000 </r>
       <r>   -0.5269    1.0000 </r>
       <r>    1.3610    1.0000 </r>
       <r>    1.9207    1.0000 </r>
       <r>    1.9694    1.0000 </r>
       <r>    2.1657    1.0000 </r>
       <r>    2.6569    1.0000 </r>
       <r>    5.7362    0.0000 </r>
       <r>   14.4682    0.0000 </r>
       <r>   15.6215    0.0000 </r>
       <r>   17.5027    0.0000 </r>
       <r>   19.5837    0.0000 </r>
      </set>
      <set comment="kpoint 73">
       <r>  -18.8011    1.0000 </r>
       <r>   -1.6496    1.0000 </r>
       <r>   -0.9508    1.0000 </r>
       <r>   -0.7301    1.0000 </r>
       <r>    1.4684    1.0000 </r>
       <r>    1.9879    1.0000 </r>
       <r>    2.0514    1.0000 </r>
       <r>    2.3850    1.0000 </r>
       <r>    2.8711    1.0000 </r>
       <r>    6.5112    0.0000 </r>
       <r>   12.9378    0.0000 </r>
       <r>   15.1593    0.0000 </r>
       <r>   16.9102    0.0000 </r>
       <r>   20.2125    0.0000 </r>
      </set>
      <set comment="kpoint 74">
       <r>  -18.7784    1.0000 </r>
       <r>   -1.7526    1.0000 </r>
       <r>   -1.1088    1.0000 </r>
       <r>   -0.9195    1.0000 </r>
       <r>    1.6056    1.0000 </r>
       <r>    2.0345    1.0000 </r>
       <r>    2.0938    1.0000 </r>
       <r>    2.6117    1.0000 </r>
       <r>    3.0178    1.0000 </r>
       <r>    7.3856    0.0000 </r>
       <r>   11.5446    0.0000 </r>
       <r>   14.7679    0.0000 </r>
       <r>   16.4595    0.0000 </r>
       <r>   20.7599    0.0000 </r>
      </set>
      <set comment="kpoint 75">
       <r>  -18.7633    1.0000 </r>
       <r>   -1.8223    1.0000 </r>
       <r>   -1.1805    1.0000 </r>
       <r>   -1.0637    1.0000 </r>
       <r>    1.7516    1.0000 </r>
       <r>    2.0233    1.0000 </r>
       <r>    2.1100    1.0000 </r>
       <r>    2.7655    1.0000 </r>
       <r>    3.1095    1.0000 </r>
       <r>    8.3631    0.0000 </r>
       <r>   10.2823    0.0000 </r>
       <r>   14.4749    0.0000 </r>
       <r>   16.2194    0.0000 </r>
       <r>   21.2207    0.0000 </r>
      </set>
      <set comment="kpoint 76">
       <r>  -18.7592    1.0000 </r>
       <r>   -1.8524    1.0000 </r>
       <r>   -1.1660    1.0000 </r>
       <r>   -1.1399    1.0000 </r>
       <r>    1.8686    1.0000 </r>
       <r>    1.9642    1.0000 </r>
       <r>    2.0996    1.0000 </r>
       <r>    2.7642    1.0000 </r>
       <r>    3.1935    1.0000 </r>
       <r>    9.1246    0.0000 </r>
       <r>    9.4588    0.0000 </r>
       <r>   14.3099    0.0000 </r>
       <r>   16.2243    0.0000 </r>
       <r>   21.6369    0.0000 </r>
      </set>
      <set comment="kpoint 77">
       <r>  -18.7663    1.0000 </r>
       <r>   -1.8323    1.0000 </r>
       <r>   -1.1710    1.0000 </r>
       <r>   -1.0474    1.0000 </r>
       <r>    1.8254    1.0000 </r>
       <r>    1.9785    1.0000 </r>
       <r>    2.0655    1.0000 </r>
       <r>    2.6301    1.0000 </r>
       <r>    3.2424    0.9953 </r>
       <r>    8.0771    0.0000 </r>
       <r>   10.6585    0.0000 </r>
       <r>   14.2939    0.0000 </r>
       <r>   16.4759    0.0000 </r>
       <r>   21.9393    0.0000 </r>
      </set>
      <set comment="kpoint 78">
       <r>  -18.7835    1.0000 </r>
       <r>   -1.7563    1.0000 </r>
       <r>   -1.1231    1.0000 </r>
       <r>   -0.8802    1.0000 </r>
       <r>    1.7109    1.0000 </r>
       <r>    1.9570    1.0000 </r>
       <r>    2.0433    1.0000 </r>
       <r>    2.4334    1.0000 </r>
       <r>    3.2092    0.9998 </r>
       <r>    7.1085    0.0000 </r>
       <r>   11.9932    0.0000 </r>
       <r>   14.4272    0.0000 </r>
       <r>   16.9471    0.0000 </r>
       <r>   21.7313    0.0000 </r>
      </set>
      <set comment="kpoint 79">
       <r>  -18.8076    1.0000 </r>
       <r>   -1.6255    1.0000 </r>
       <r>   -1.0139    1.0000 </r>
       <r>   -0.6852    1.0000 </r>
       <r>    1.6021    1.0000 </r>
       <r>    1.8930    1.0000 </r>
       <r>    1.9928    1.0000 </r>
       <r>    2.2382    1.0000 </r>
       <r>    3.0817    1.0000 </r>
       <r>    6.2227    0.0000 </r>
       <r>   13.4637    0.0000 </r>
       <r>   14.6903    0.0000 </r>
       <r>   17.5824    0.0000 </r>
       <r>   21.1974    0.0000 </r>
      </set>
      <set comment="kpoint 80">
       <r>  -18.8349    1.0000 </r>
       <r>   -1.4458    1.0000 </r>
       <r>   -0.8544    1.0000 </r>
       <r>   -0.5130    1.0000 </r>
       <r>    1.5121    1.0000 </r>
       <r>    1.8240    1.0000 </r>
       <r>    1.9075    1.0000 </r>
       <r>    2.1044    1.0000 </r>
       <r>    2.8722    1.0000 </r>
       <r>    5.4266    0.0000 </r>
       <r>   15.0269    0.0000 </r>
       <r>   15.0943    0.0000 </r>
       <r>   18.2719    0.0000 </r>
       <r>   20.6404    0.0000 </r>
      </set>
      <set comment="kpoint 81">
       <r>  -18.8203    1.0000 </r>
       <r>   -1.5460    1.0000 </r>
       <r>   -0.5697    1.0000 </r>
       <r>   -0.4540    1.0000 </r>
       <r>    1.1900    1.0000 </r>
       <r>    1.9803    1.0000 </r>
       <r>    2.0355    1.0000 </r>
       <r>    2.1051    1.0000 </r>
       <r>    2.4077    1.0000 </r>
       <r>    6.0915    0.0000 </r>
       <r>   14.4702    0.0000 </r>
       <r>   15.5252    0.0000 </r>
       <r>   17.0135    0.0000 </r>
       <r>   18.3761    0.0000 </r>
      </set>
      <set comment="kpoint 82">
       <r>  -18.7991    1.0000 </r>
       <r>   -1.5971    1.0000 </r>
       <r>   -0.7717    1.0000 </r>
       <r>   -0.5941    1.0000 </r>
       <r>    1.2649    1.0000 </r>
       <r>    2.0370    1.0000 </r>
       <r>    2.0982    1.0000 </r>
       <r>    2.2134    1.0000 </r>
       <r>    2.5883    1.0000 </r>
       <r>    6.7510    0.0000 </r>
       <r>   13.3178    0.0000 </r>
       <r>   14.7576    0.0000 </r>
       <r>   16.5804    0.0000 </r>
       <r>   19.0155    0.0000 </r>
      </set>
      <set comment="kpoint 83">
       <r>  -18.7795    1.0000 </r>
       <r>   -1.6128    1.0000 </r>
       <r>   -0.9763    1.0000 </r>
       <r>   -0.7694    1.0000 </r>
       <r>    1.3913    1.0000 </r>
       <r>    2.0742    1.0000 </r>
       <r>    2.1362    1.0000 </r>
       <r>    2.3631    1.0000 </r>
       <r>    2.7538    1.0000 </r>
       <r>    7.5150    0.0000 </r>
       <r>   12.1337    0.0000 </r>
       <r>   14.1563    0.0000 </r>
       <r>   16.2127    0.0000 </r>
       <r>   19.6739    0.0000 </r>
      </set>
      <set comment="kpoint 84">
       <r>  -18.7647    1.0000 </r>
       <r>   -1.6162    1.0000 </r>
       <r>   -1.1225    1.0000 </r>
       <r>   -0.9312    1.0000 </r>
       <r>    1.5471    1.0000 </r>
       <r>    2.0579    1.0000 </r>
       <r>    2.1481    1.0000 </r>
       <r>    2.4825    1.0000 </r>
       <r>    2.9013    1.0000 </r>
       <r>    8.3859    0.0000 </r>
       <r>   11.0207    0.0000 </r>
       <r>   13.6677    0.0000 </r>
       <r>   16.0114    0.0000 </r>
       <r>   20.2631    0.0000 </r>
      </set>
      <set comment="kpoint 85">
       <r>  -18.7576    1.0000 </r>
       <r>   -1.6465    1.0000 </r>
       <r>   -1.1516    1.0000 </r>
       <r>   -1.0532    1.0000 </r>
       <r>    1.7078    1.0000 </r>
       <r>    1.9941    1.0000 </r>
       <r>    2.1339    1.0000 </r>
       <r>    2.4929    1.0000 </r>
       <r>    3.0549    1.0000 </r>
       <r>    9.2903    0.0000 </r>
       <r>   10.0558    0.0000 </r>
       <r>   13.3144    0.0000 </r>
[...]
        <r>  0.0041  0.0236  0.0511  0.0118  0.0014  0.0000  0.1778  0.0000  0.0002 </r>
        <r>  0.0181  0.0006  0.0149  0.0003  0.0000  0.0000  0.0000  0.0000  0.0000 </r>
       </set>
      </set>
      <set comment="kpoint 115">
       <set comment="band 1">
        <r>  0.0006  0.0002  0.0005  0.0004  0.0046  0.0001  0.0017  0.0001  0.0006 </r>
        <r>  0.8628  0.0000  0.0000  0.0000  0.0000  0.0000  0.0000  0.0000  0.0000 </r>
       </set>
       <set comment="band 2">
        <r>  0.0039  0.0203  0.0001  0.0344  0.0088  0.0103  0.0011  0.0055  0.0086 </r>
        <r>  0.0000  0.1466  0.0058  0.4536  0.0000  0.0000  0.0000  0.0000  0.0000 </r>
       </set>
       <set comment="band 3">
        <r>  0.0184  0.0015  0.0048  0.0042  0.0263  0.0659  0.0103  0.0281  0.0048 </r>
        <r>  0.0004  0.2594  0.2977  0.0505  0.0000  0.0000  0.0000  0.0000  0.0000 </r>
       </set>
       <set comment="band 4">
        <r>  0.0000  0.0111  0.0167  0.0056  0.0197  0.0003  0.0573  0.0006  0.0003 </r>
        <r>  0.0000  0.2116  0.3173  0.1058  0.0000  0.0000  0.0000  0.0000  0.0000 </r>
       </set>
       <set comment="band 5">
        <r>  0.0000  0.0002  0.0003  0.0001  0.1751  0.0001  0.6037  0.0001  0.0263 </r>
        <r>  0.0000  0.0288  0.0432  0.0144  0.0000  0.0000  0.0000  0.0000  0.0000 </r>
       </set>
       <set comment="band 6">
        <r>  0.0015  0.0000  0.0005  0.0011  0.4440  0.0888  0.1814  0.1013  0.1081 </r>
        <r>  0.0168  0.0028  0.0012  0.0002  0.0000  0.0000  0.0000  0.0000  0.0000 </r>
       </set>
       <set comment="band 7">
        <r>  0.0001  0.0001  0.0000  0.0002  0.0984  0.1734  0.0030  0.2824  0.3653 </r>
        <r>  0.0003  0.0091  0.0005  0.0295  0.0000  0.0000  0.0000  0.0000  0.0000 </r>
       </set>
       <set comment="band 8">
        <r>  0.0000  0.0000  0.0000  0.0000  0.0546  0.1620  0.0000  0.3239  0.4312 </r>
        <r>  0.0000  0.0008  0.0012  0.0004  0.0000  0.0000  0.0000  0.0000  0.0000 </r>
       </set>
       <set comment="band 9">
        <r>  0.0031  0.0006  0.0015  0.0010  0.0954  0.4651  0.0364  0.2234  0.0138 </r>
        <r>  0.0012  0.0476  0.0582  0.0119  0.0000  0.0000  0.0000  0.0000  0.0000 </r>
       </set>
       <set comment="band 10">
        <r>  0.5523  0.0001  0.0034  0.0134  0.0071  0.0000  0.0035  0.0020  0.0046 </r>
        <r>  0.0095  0.0004  0.0224  0.0534  0.0000  0.0000  0.0000  0.0000  0.0000 </r>
       </set>
       <set comment="band 11">
        <r>  0.0507  0.0691  0.0003  0.1631  0.0017  0.0033  0.0000  0.0066  0.0083 </r>
        <r>  0.0000  0.0896  0.0030  0.1082  0.0000  0.0000  0.0000  0.0000  0.0000 </r>
       </set>
       <set comment="band 12">
        <r>  0.0000  0.0797  0.1196  0.0399  0.0270  0.0001  0.0841  0.0002  0.0014 </r>
        <r>  0.0000  0.0390  0.0585  0.0195  0.0000  0.0000  0.0000  0.0000  0.0000 </r>
       </set>
       <set comment="band 13">
        <r>  0.0061  0.1515  0.2002  0.0504  0.0185  0.0019  0.0062  0.0000  0.0005 </r>
        <r>  0.0242  0.0164  0.0370  0.0230  0.0000  0.0000  0.0000  0.0000  0.0000 </r>
       </set>
       <set comment="band 14">
        <r>  0.0000  0.0482  0.0722  0.0241  0.0372  0.0001  0.1315  0.0001  0.0068 </r>
        <r>  0.0000  0.0150  0.0225  0.0075  0.0000  0.0000  0.0000  0.0000  0.0000 </r>
       </set>
      </set>
      <set comment="kpoint 116">
       <set comment="band 1">
        <r>  0.0003  0.0007  0.0004  0.0003  0.0043  0.0002  0.0016  0.0001  0.0005 </r>
        <r>  0.8632  0.0000  0.0000  0.0000  0.0000  0.0000  0.0000  0.0000  0.0000 </r>
       </set>
       <set comment="band 2">
        <r>  0.0000  0.0181  0.0000  0.0362  0.0033  0.0041  0.0000  0.0083  0.0264 </r>
        <r>  0.0000  0.2026  0.0000  0.4051  0.0000  0.0000  0.0000  0.0000  0.0000 </r>
       </set>
       <set comment="band 3">
        <r>  0.0273  0.0053  0.0001  0.0026  0.0122  0.0589  0.0463  0.0294  0.0015 </r>
        <r>  0.0003  0.3002  0.1297  0.1501  0.0000  0.0000  0.0000  0.0000  0.0000 </r>
       </set>
       <set comment="band 4">
        <r>  0.0000  0.0084  0.0195  0.0042  0.0160  0.0244  0.0464  0.0122  0.0020 </r>
        <r>  0.0000  0.0928  0.4757  0.0464  0.0000  0.0000  0.0000  0.0000  0.0000 </r>
       </set>
       <set comment="band 5">
        <r>  0.0004  0.0000  0.0003  0.0000  0.2752  0.0020  0.5046  0.0010  0.0344 </r>
        <r>  0.0004  0.0376  0.0298  0.0188  0.0000  0.0000  0.0000  0.0000  0.0000 </r>
       </set>
       <set comment="band 6">
        <r>  0.0002  0.0013  0.0000  0.0006  0.4233  0.1132  0.2680  0.0566  0.0529 </r>
        <r>  0.0162  0.0092  0.0026  0.0046  0.0000  0.0000  0.0000  0.0000  0.0000 </r>
       </set>
       <set comment="band 7">
        <r>  0.0000  0.0001  0.0000  0.0001  0.0459  0.1636  0.0000  0.3271  0.3676 </r>
        <r>  0.0000  0.0170  0.0000  0.0341  0.0000  0.0000  0.0000  0.0000  0.0000 </r>
       </set>
       <set comment="band 8">
        <r>  0.0000  0.0000  0.0000  0.0000  0.0569  0.1529  0.0000  0.3059  0.4549 </r>
        <r>  0.0000  0.0011  0.0000  0.0021  0.0000  0.0000  0.0000  0.0000  0.0000 </r>
       </set>
       <set comment="band 9">
        <r>  0.0066  0.0003  0.0016  0.0002  0.0927  0.4468  0.0365  0.2234  0.0116 </r>
        <r>  0.0005  0.0307  0.0942  0.0153  0.0000  0.0000  0.0000  0.0000  0.0000 </r>
       </set>
       <set comment="band 10">
        <r>  0.5993  0.0022  0.0016  0.0011  0.0029  0.0006  0.0032  0.0003  0.0004 </r>
        <r>  0.0053  0.0377  0.0224  0.0189  0.0000  0.0000  0.0000  0.0000  0.0000 </r>
       </set>
       <set comment="band 11">
        <r>  0.0000  0.0803  0.0000  0.1607  0.0028  0.0038  0.0000  0.0076  0.0220 </r>
        <r>  0.0000  0.0703  0.0000  0.1406  0.0000  0.0000  0.0000  0.0000  0.0000 </r>
       </set>
       <set comment="band 12">
        <r>  0.0000  0.1441  0.0362  0.0721  0.0407  0.0001  0.0514  0.0001  0.0051 </r>
        <r>  0.0060  0.0537  0.0366  0.0268  0.0000  0.0000  0.0000  0.0000  0.0000 </r>
       </set>
       <set comment="band 13">
        <r>  0.0054  0.0609  0.3082  0.0305  0.0086  0.0019  0.0223  0.0009  0.0011 </r>
        <r>  0.0275  0.0021  0.0543  0.0010  0.0000  0.0000  0.0000  0.0000  0.0000 </r>
       </set>
       <set comment="band 14">
        <r>  0.0009  0.0440  0.0611  0.0220  0.0202  0.0000  0.1524  0.0000  0.0025 </r>
        <r>  0.0027  0.0108  0.0209  0.0054  0.0000  0.0000  0.0000  0.0000  0.0000 </r>
       </set>
      </set>
      <set comment="kpoint 117">
       <set comment="band 1">
        <r>  0.0003  0.0001  0.0008  0.0014  0.0030  0.0005  0.0011  0.0003  0.0004 </r>
        <r>  0.8631  0.0000  0.0000  0.0000  0.0000  0.0000  0.0000  0.0000  0.0000 </r>
       </set>
       <set comment="band 2">
        <r>  0.0379  0.0100  0.0001  0.0146  0.0150  0.0629  0.0018  0.0004  0.0165 </r>
        <r>  0.0001  0.0116  0.0902  0.4526  0.0000  0.0000  0.0000  0.0000  0.0000 </r>
       </set>
       <set comment="band 3">
        <r>  0.0056  0.0017  0.0005  0.0092  0.0757  0.0522  0.0270  0.0351  0.0056 </r>
        <r>  0.0002  0.3681  0.1877  0.0116  0.0000  0.0000  0.0000  0.0000  0.0000 </r>
       </set>
       <set comment="band 4">
        <r>  0.0000  0.0124  0.0186  0.0062  0.0257  0.0025  0.0586  0.0049  0.0012 </r>
        <r>  0.0000  0.2017  0.3025  0.1008  0.0000  0.0000  0.0000  0.0000  0.0000 </r>
       </set>
       <set comment="band 5">
        <r>  0.0000  0.0001  0.0002  0.0001  0.1694  0.0008  0.6176  0.0016  0.0388 </r>
        <r>  0.0000  0.0297  0.0446  0.0149  0.0000  0.0000  0.0000  0.0000  0.0000 </r>
       </set>
       <set comment="band 6">
        <r>  0.0005  0.0000  0.0003  0.0012  0.0455  0.0004  0.0564  0.4277  0.3971 </r>
        <r>  0.0059  0.0000  0.0027  0.0095  0.0000  0.0000  0.0000  0.0000  0.0000 </r>
       </set>
       <set comment="band 7">
        <r>  0.0051  0.0003  0.0002  0.0023  0.3531  0.3623  0.0786  0.0056  0.0500 </r>
        <r>  0.0083  0.0102  0.0043  0.0656  0.0000  0.0000  0.0000  0.0000  0.0000 </r>
       </set>
       <set comment="band 8">
        <r>  0.0000  0.0000  0.0000  0.0000  0.0569  0.1580  0.0003  0.3161  0.4173 </r>
        <r>  0.0000  0.0071  0.0106  0.0035  0.0000  0.0000  0.0000  0.0000  0.0000 </r>
       </set>
       <set comment="band 9">
        <r>  0.0048  0.0000  0.0006  0.0020  0.1920  0.3211  0.0716  0.1640  0.0229 </r>
        <r>  0.0009  0.1034  0.0775  0.0007  0.0000  0.0000  0.0000  0.0000  0.0000 </r>
       </set>
       <set comment="band 10">
        <r>  0.4029  0.0007  0.0079  0.0370  0.0022  0.0001  0.0023  0.0113  0.0130 </r>
        <r>  0.0102  0.0015  0.0333  0.1369  0.0000  0.0000  0.0000  0.0000  0.0000 </r>
       </set>
       <set comment="band 11">
        <r>  0.1746  0.0204  0.0190  0.1943  0.0000  0.0010  0.0004  0.0073  0.0089 </r>
        <r>  0.0073  0.0596  0.0166  0.0148  0.0000  0.0000  0.0000  0.0000  0.0000 </r>
       </set>
       <set comment="band 12">
        <r>  0.0000  0.0798  0.1198  0.0399  0.0253  0.0013  0.0643  0.0027  0.0001 </r>
        <r>  0.0000  0.0444  0.0666  0.0222  0.0000  0.0000  0.0000  0.0000  0.0000 </r>
       </set>
       <set comment="band 13">
        <r>  0.0000  0.2267  0.1823  0.0044  0.0248  0.0068  0.0067  0.0009  0.0004 </r>
        <r>  0.0255  0.0025  0.0048  0.0360  0.0000  0.0000  0.0000  0.0000  0.0000 </r>
       </set>
       <set comment="band 14">
        <r>  0.0000  0.0385  0.0578  0.0193  0.0298  0.0006  0.1183  0.0013  0.0115 </r>
        <r>  0.0000  0.0109  0.0164  0.0055  0.0000  0.0000  0.0000  0.0000  0.0000 </r>
       </set>
      </set>
      <set comment="kpoint 118">
       <set comment="band 1">
        <r>  0.0000  0.0004  0.0005  0.0012  0.0030  0.0008  0.0011  0.0004  0.0004 </r>
        <r>  0.8636  0.0000  0.0000  0.0000  0.0000  0.0000  0.0000  0.0000  0.0000 </r>
       </set>
       <set comment="band 2">
        <r>  0.0379  0.0099  0.0007  0.0059  0.0020  0.0757  0.0120  0.0033  0.0272 </r>
        <r>  0.0000  0.0280  0.0840  0.4437  0.0000  0.0000  0.0000  0.0000  0.0000 </r>
       </set>
       <set comment="band 3">
        <r>  0.0017  0.0028  0.0011  0.0236  0.0496  0.0074  0.0501  0.0333  0.0017 </r>
        <r>  0.0001  0.5001  0.0177  0.0634  0.0000  0.0000  0.0000  0.0000  0.0000 </r>
       </set>
       <set comment="band 4">
        <r>  0.0001  0.0137  0.0181  0.0036  0.0278  0.0423  0.0330  0.0053  0.0000 </r>
        <r>  0.0000  0.0521  0.4786  0.0645  0.0000  0.0000  0.0000  0.0000  0.0000 </r>
       </set>
       <set comment="band 5">
        <r>  0.0002  0.0000  0.0002  0.0001  0.2885  0.0033  0.4267  0.0212  0.1195 </r>
        <r>  0.0011  0.0305  0.0268  0.0108  0.0000  0.0000  0.0000  0.0000  0.0000 </r>
       </set>
       <set comment="band 6">
        <r>  0.0002  0.0002  0.0000  0.0004  0.0011  0.0306  0.1292  0.3929  0.3314 </r>
        <r>  0.0025  0.0000  0.0004  0.0505  0.0000  0.0000  0.0000  0.0000  0.0000 </r>
       </set>
       <set comment="band 7">
        <r>  0.0010  0.0000  0.0000  0.0036  0.3615  0.2791  0.2102  0.0016  0.0071 </r>
        <r>  0.0115  0.0327  0.0118  0.0253  0.0000  0.0000  0.0000  0.0000  0.0000 </r>
       </set>
       <set comment="band 8">
        <r>  0.0000  0.0000  0.0000  0.0000  0.0517  0.1474  0.0007  0.3201  0.4394 </r>
        <r>  0.0000  0.0014  0.0041  0.0070  0.0000  0.0000  0.0000  0.0000  0.0000 </r>
       </set>
       <set comment="band 9">
        <r>  0.0095  0.0002  0.0002  0.0004  0.1530  0.3735  0.0583  0.1773  0.0164 </r>
        <r>  0.0001  0.0697  0.1015  0.0024  0.0000  0.0000  0.0000  0.0000  0.0000 </r>
       </set>
       <set comment="band 10">
        <r>  0.5192  0.0005  0.0018  0.0111  0.0002  0.0000  0.0017  0.0047  0.0071 </r>
        <r>  0.0019  0.0094  0.0311  0.1113  0.0000  0.0000  0.0000  0.0000  0.0000 </r>
       </set>
       <set comment="band 11">
        <r>  0.0415  0.0011  0.0000  0.2501  0.0073  0.0014  0.0058  0.0158  0.0227 </r>
        <r>  0.0116  0.1061  0.0056  0.0119  0.0000  0.0000  0.0000  0.0000  0.0000 </r>
       </set>
       <set comment="band 12">
        <r>  0.0261  0.1551  0.0906  0.0008  0.0248  0.0002  0.0378  0.0008  0.0059 </r>
        <r>  0.0000  0.0031  0.0720  0.0637  0.0000  0.0000  0.0000  0.0000  0.0000 </r>
       </set>
       <set comment="band 13">
        <r>  0.0000  0.1556  0.2505  0.0029  0.0168  0.0095  0.0145  0.0000  0.0002 </r>
        <r>  0.0312  0.0139  0.0069  0.0108  0.0000  0.0000  0.0000  0.0000  0.0000 </r>
       </set>
       <set comment="band 14">
        <r>  0.0002  0.0195  0.0530  0.0248  0.0086  0.0008  0.1340  0.0000  0.0123 </r>
        <r>  0.0040  0.0079  0.0151  0.0027  0.0000  0.0000  0.0000  0.0000  0.0000 </r>
       </set>
      </set>
      <set comment="kpoint 119">
       <set comment="band 1">
        <r>  0.0001  0.0003  0.0008  0.0006  0.0037  0.0005  0.0014  0.0003  0.0005 </r>
        <r>  0.8635  0.0000  0.0000  0.0000  0.0000  0.0000  0.0000  0.0000  0.0000 </r>
       </set>
       <set comment="band 2">
        <r>  0.0215  0.0125  0.0004  0.0153  0.0001  0.0739  0.0012  0.0006  0.0224 </r>
        <r>  0.0000  0.0016  0.1264  0.4532  0.0000  0.0000  0.0000  0.0000  0.0000 </r>
       </set>
       <set comment="band 3">
        <r>  0.0097  0.0043  0.0005  0.0177  0.0450  0.0282  0.0126  0.0511  0.0003 </r>
        <r>  0.0001  0.3896  0.1571  0.0385  0.0000  0.0000  0.0000  0.0000  0.0000 </r>
       </set>
       <set comment="band 4">
        <r>  0.0000  0.0132  0.0198  0.0066  0.0209  0.0003  0.0611  0.0006  0.0004 </r>
        <r>  0.0000  0.2029  0.3043  0.1014  0.0000  0.0000  0.0000  0.0000  0.0000 </r>
       </set>
       <set comment="band 5">
        <r>  0.0000  0.0002  0.0002  0.0001  0.1768  0.0001  0.6128  0.0002  0.0277 </r>
        <r>  0.0000  0.0323  0.0484  0.0161  0.0000  0.0000  0.0000  0.0000  0.0000 </r>
       </set>
       <set comment="band 6">
        <r>  0.0002  0.0001  0.0005  0.0006  0.2332  0.0233  0.1323  0.2661  0.2745 </r>
        <r>  0.0123  0.0004  0.0005  0.0047  0.0000  0.0000  0.0000  0.0000  0.0000 </r>
       </set>
       <set comment="band 7">
        <r>  0.0004  0.0000  0.0001  0.0007  0.2741  0.2688  0.0414  0.1126  0.1789 </r>
        <r>  0.0038  0.0176  0.0004  0.0490  0.0000  0.0000  0.0000  0.0000  0.0000 </r>
       </set>
       <set comment="band 8">
        <r>  0.0000  0.0000  0.0000  0.0000  0.0553  0.1619  0.0000  0.3238  0.4304 </r>
        <r>  0.0000  0.0009  0.0013  0.0004  0.0000  0.0000  0.0000  0.0000  0.0000 </r>
       </set>
       <set comment="band 9">
        <r>  0.0100  0.0001  0.0004  0.0005  0.1257  0.4054  0.0472  0.2025  0.0158 </r>
        <r>  0.0003  0.0643  0.0753  0.0136  0.0000  0.0000  0.0000  0.0000  0.0000 </r>
       </set>
       <set comment="band 10">
        <r>  0.5637  0.0000  0.0021  0.0079  0.0009  0.0000  0.0007  0.0031  0.0032 </r>
        <r>  0.0033  0.0087  0.0462  0.0577  0.0000  0.0000  0.0000  0.0000  0.0000 </r>
       </set>
       <set comment="band 11">
        <r>  0.0332  0.0536  0.0033  0.1823  0.0008  0.0055  0.0001  0.0157  0.0206 </r>
        <r>  0.0014  0.0811  0.0034  0.0914  0.0000  0.0000  0.0000  0.0000  0.0000 </r>
       </set>
       <set comment="band 12">
        <r>  0.0000  0.0804  0.1205  0.0402  0.0218  0.0001  0.0668  0.0003  0.0009 </r>
        <r>  0.0000  0.0480  0.0719  0.0240  0.0000  0.0000  0.0000  0.0000  0.0000 </r>
       </set>
       <set comment="band 13">
        <r>  0.0023  0.1710  0.2011  0.0368  0.0254  0.0058  0.0083  0.0002  0.0006 </r>
        <r>  0.0388  0.0009  0.0087  0.0142  0.0000  0.0000  0.0000  0.0000  0.0000 </r>
       </set>
       <set comment="band 14">
        <r>  0.0000  0.0392  0.0588  0.0196  0.0342  0.0001  0.1215  0.0001  0.0065 </r>
        <r>  0.0000  0.0120  0.0180  0.0060  0.0000  0.0000  0.0000  0.0000  0.0000 </r>
       </set>
      </set>
      <set comment="kpoint 120">
       <set comment="band 1">
        <r>  0.0000  0.0009  0.0005  0.0004  0.0033  0.0008  0.0012  0.0004  0.0004 </r>
        <r>  0.8637  0.0000  0.0000  0.0000  0.0000  0.0000  0.0000  0.0000  0.0000 </r>
       </set>
       <set comment="band 2">
        <r>  0.0326  0.0024  0.0014  0.0012  0.0135  0.0669  0.0475  0.0335  0.0017 </r>
        <r>  0.0000  0.3048  0.1030  0.1524  0.0000  0.0000  0.0000  0.0000  0.0000 </r>
       </set>
       <set comment="band 3">
        <r>  0.0000  0.0156  0.0000  0.0313  0.0049  0.0076  0.0000  0.0151  0.0394 </r>
        <r>  0.0000  0.2010  0.0000  0.4019  0.0000  0.0000  0.0000  0.0000  0.0000 </r>
       </set>
       <set comment="band 4">
        <r>  0.0003  0.0118  0.0191  0.0059  0.0179  0.0288  0.0384  0.0144  0.0022 </r>
        <r>  0.0000  0.0777  0.4815  0.0388  0.0000  0.0000  0.0000  0.0000  0.0000 </r>
       </set>
       <set comment="band 5">
        <r>  0.0002  0.0000  0.0003  0.0000  0.3756  0.0106  0.4150  0.0053  0.0470 </r>
        <r>  0.0013  0.0312  0.0261  0.0156  0.0000  0.0000  0.0000  0.0000  0.0000 </r>
       </set>
       <set comment="band 6">
        <r>  0.0000  0.0001  0.0000  0.0002  0.0445  0.1517  0.0000  0.3035  0.3563 </r>
        <r>  0.0000  0.0270  0.0000  0.0539  0.0000  0.0000  0.0000  0.0000  0.0000 </r>
       </set>
       <set comment="band 7">
        <r>  0.0000  0.0013  0.0000  0.0006  0.3052  0.1277  0.3735  0.0638  0.0382 </r>
        <r>  0.0147  0.0102  0.0083  0.0051  0.0000  0.0000  0.0000  0.0000  0.0000 </r>
       </set>
       <set comment="band 8">
        <r>  0.0000  0.0000  0.0000  0.0000  0.0553  0.1577  0.0000  0.3153  0.4427 </r>
        <r>  0.0000  0.0009  0.0000  0.0019  0.0000  0.0000  0.0000  0.0000  0.0000 </r>
       </set>
       <set comment="band 9">
        <r>  0.0122  0.0000  0.0002  0.0000  0.1169  0.4095  0.0442  0.2047  0.0146 </r>
        <r>  0.0000  0.0375  0.1033  0.0187  0.0000  0.0000  0.0000  0.0000  0.0000 </r>
       </set>
       <set comment="band 10">
        <r>  0.5896  0.0001  0.0005  0.0000  0.0003  0.0002  0.0015  0.0001  0.0000 </r>
        <r>  0.0001  0.0607  0.0300  0.0303  0.0000  0.0000  0.0000  0.0000  0.0000 </r>
       </set>
       <set comment="band 11">
        <r>  0.0000  0.0806  0.0000  0.1612  0.0044  0.0078  0.0000  0.0155  0.0353 </r>
        <r>  0.0000  0.0588  0.0000  0.1177  0.0000  0.0000  0.0000  0.0000  0.0000 </r>
       </set>
       <set comment="band 12">
        <r>  0.0063  0.1326  0.0520  0.0663  0.0291  0.0004  0.0391  0.0002  0.0036 </r>
        <r>  0.0051  0.0431  0.0772  0.0215  0.0000  0.0000  0.0000  0.0000  0.0000 </r>
       </set>
       <set comment="band 13">
        <r>  0.0007  0.0800  0.2890  0.0400  0.0126  0.0057  0.0206  0.0029  0.0016 </r>
        <r>  0.0403  0.0012  0.0126  0.0006  0.0000  0.0000  0.0000  0.0000  0.0000 </r>
       </set>
       <set comment="band 14">
        <r>  0.0005  0.0302  0.0558  0.0151  0.0167  0.0000  0.1371  0.0000  0.0021 </r>
        <r>  0.0025  0.0071  0.0186  0.0036  0.0000  0.0000  0.0000  0.0000  0.0000 </r>
       </set>
      </set>
     </set>
    </set>
   </array>
  </projected>
 </calculation>
 <structure name="finalpos" >
  <crystal>
   <varray name="basis" >
    <v>       3.01395775       0.00000000       1.74010806 </v>
    <v>       1.00465292       2.84158622       1.74010806 </v>
    <v>      -0.00000002      -0.00000001       3.48021917 </v>
   </varray>
   <i name="volume">     29.80606162 </i>
   <varray name="rec_basis" >
    <v>       0.33178965      -0.11730541       0.00000000 </v>
    <v>      -0.00000000       0.35191612       0.00000000 </v>
    <v>      -0.16589468      -0.11730525       0.28733822 </v>
   </varray>
  </crystal>
  <varray name="positions" >
   <v>       0.00000000       0.00000000       0.00000000 </v>
   <v>       0.50000000       0.50000000       0.50000000 </v>
  </varray>
 </structure>
</modeling>
