<?xml version="1.0" encoding="ISO-8859-1"?>
<modeling>
 <generator>
  <i name="program" type="string">vasp </i>
  <i name="version" type="string">5.4.4.18Apr17-6-g9f103f2a35  </i>
  <i name="subversion" type="string">(build Jan 25 2021 16:16:55) complex            parallel </i>
  <i name="platform" type="string">LinuxIFC </i>
  <i name="date" type="string">2026 05 14 </i>
  <i name="time" type="string">20:09:46 </i>
 </generator>
 <incar>
  <i type="string" name="SYSTEM"> AgF testing</i>
  <i type="int" name="ISTART">     0</i>
  <i type="string" name="PREC">accurate</i>
  <i type="string" name="ALGO"> Normal</i>
  <i type="int" name="ICHARG">     2</i>
  <i type="int" name="IBRION">    -1</i>
  <i name="EDIFF">      0.00010000</i>
  <i type="int" name="NSW">     0</i>
  <i name="ENCUT">    300.00000000</i>
  <i type="logical" name="LREAL"> F  </i>
  <i type="int" name="ISMEAR">     0</i>
  <i name="SIGMA">      0.05000000</i>
  <i type="logical" name="LWAVE"> F  </i>
  <i type="logical" name="LCHARG"> F  </i>
  <i type="int" name="LORBIT">    11</i>
  <i type="logical" name="LASPH"> T  </i>
  <v type="int" name="KPOINT_BSE">    -1     0     0     0</v>
  <i type="logical" name="LASPH"> T  </i>
 </incar>
 <structure name="primitive_cell" >
  <crystal>
   <varray name="basis" >
    <v>       3.01395775       0.00000000       1.74010806 </v>
    <v>       1.00465292       2.84158622       1.74010806 </v>
    <v>      -0.00000002      -0.00000001       3.48021917 </v>
   </varray>
   <i name="volume">     29.80606162 </i>
   <varray name="rec_basis" >
    <v>       0.33178965      -0.11730541       0.00000000 </v>
    <v>      -0.00000000       0.35191612       0.00000000 </v>
    <v>      -0.16589468      -0.11730525       0.28733822 </v>
   </varray>
  </crystal>
  <varray name="positions" >
   <v>       0.00000000       0.00000000       0.00000000 </v>
   <v>      -0.50000000      -0.50000000      -0.50000000 </v>
  </varray>
 </structure>
 <varray name="primitive_index" >
  <v type="int" >        1 </v>
  <v type="int" >        2 </v>
 </varray>
 <kpoints>
  <generation param="Gamma">
   <v type="int" name="divisions">       2        2        2 </v>
   <v name="usershift">      0.00000000       0.00000000       0.00000000 </v>
   <v name="genvec1">      0.50000000      -0.00000000       0.00000000 </v>
   <v name="genvec2">     -0.00000000       0.50000000       0.00000000 </v>
   <v name="genvec3">     -0.00000000      -0.00000000       0.50000000 </v>
   <v name="shift">      0.00000000       0.00000000       0.00000000 </v>
  </generation>
  <varray name="kpointlist" >
   <v>       0.00000000       0.00000000       0.00000000 </v>
   <v>       0.50000000       0.00000000       0.00000000 </v>
   <v>       0.50000000       0.50000000       0.00000000 </v>
  </varray>
  <varray name="weights" >
   <v>       0.12500000 </v>
   <v>       0.50000000 </v>
   <v>       0.37500000 </v>
  </varray>
 </kpoints>
 <parameters>
  <separator name="general" >
   <i type="string" name="SYSTEM">AgF testing</i>
   <i type="logical" name="LCOMPAT"> F  </i>
  </separator>
  <separator name="electronic" >
   <i type="string" name="PREC">accura</i>
   <i name="ENMAX">    300.00000000</i>
   <i name="ENAUG">    613.61400000</i>
   <i name="EDIFF">      0.00010000</i>
   <i type="int" name="IALGO">    38</i>
   <i type="int" name="IWAVPR">    10</i>
   <i type="int" name="NBANDS">    14</i>
   <i name="NELECT">     18.00000000</i>
   <i type="int" name="TURBO">     0</i>
   <i type="int" name="IRESTART">     0</i>
   <i type="int" name="NREBOOT">     0</i>
   <i type="int" name="NMIN">     0</i>
   <i name="EREF">      0.00000000</i>
   <separator name="electronic smearing" >
    <i type="int" name="ISMEAR">     0</i>
    <i name="SIGMA">      0.05000000</i>
    <i name="KSPACING">      0.50000000</i>
    <i type="logical" name="KGAMMA"> T  </i>
   </separator>
   <separator name="electronic projectors" >
    <i type="logical" name="LREAL"> F  </i>
    <v name="ROPT">      0.00000000      0.00000000</v>
    <i type="int" name="LMAXPAW">  -100</i>
    <i type="int" name="LMAXMIX">     2</i>
    <i type="logical" name="NLSPLINE"> F  </i>
   </separator>
   <separator name="electronic startup" >
    <i type="int" name="ISTART">     0</i>
    <i type="int" name="ICHARG">     2</i>
    <i type="int" name="INIWAV">     1</i>
   </separator>
   <separator name="electronic spin" >
    <i type="int" name="ISPIN">     1</i>
    <i type="logical" name="LNONCOLLINEAR"> F  </i>
    <v name="MAGMOM">      1.00000000      1.00000000</v>
    <i name="NUPDOWN">     -1.00000000</i>
    <i type="logical" name="LSORBIT"> F  </i>
    <v name="SAXIS">      0.00000000      0.00000000      1.00000000</v>
    <i type="logical" name="LSPIRAL"> F  </i>
    <v name="QSPIRAL">      0.00000000      0.00000000      0.00000000</v>
    <i type="logical" name="LZEROZ"> F  </i>
   </separator>
   <separator name="electronic exchange-correlation" >
    <i type="logical" name="LASPH"> T  </i>
    <i type="logical" name="LMETAGGA"> F  </i>
   </separator>
   <separator name="electronic convergence" >
    <i type="int" name="NELM">    60</i>
    <i type="int" name="NELMDL">    -5</i>
    <i type="int" name="NELMIN">     2</i>
    <i name="ENINI">    300.00000000</i>
    <separator name="electronic convergence detail" >
     <i type="logical" name="LDIAG"> T  </i>
     <i type="logical" name="LSUBROT"> F  </i>
     <i name="WEIMIN">      0.00000000</i>
     <i name="EBREAK">      0.00000179</i>
     <i name="DEPER">      0.30000000</i>
     <i type="int" name="NRMM">     4</i>
     <i name="TIME">      0.40000000</i>
    </separator>
   </separator>
   <separator name="electronic mixer" >
    <i name="AMIX">      0.40000000</i>
    <i name="BMIX">      1.00000000</i>
    <i name="AMIN">      0.10000000</i>
    <i name="AMIX_MAG">      1.60000000</i>
    <i name="BMIX_MAG">      1.00000000</i>
    <separator name="electronic mixer details" >
     <i type="int" name="IMIX">     4</i>
     <i type="logical" name="MIXFIRST"> F  </i>
     <i type="int" name="MAXMIX">   -45</i>
     <i name="WC">    100.00000000</i>
     <i type="int" name="INIMIX">     1</i>
     <i type="int" name="MIXPRE">     1</i>
     <i type="int" name="MREMOVE">     5</i>
    </separator>
   </separator>
   <separator name="electronic dipolcorrection" >
    <i type="logical" name="LDIPOL"> F  </i>
    <i type="logical" name="LMONO"> F  </i>
    <i type="int" name="IDIPOL">     0</i>
    <i name="EPSILON">      1.00000000</i>
    <v name="DIPOL">   -100.00000000   -100.00000000   -100.00000000</v>
    <i name="EFIELD">      0.00000000</i>
   </separator>
  </separator>
  <separator name="grids" >
   <i type="int" name="NGX">    20</i>
   <i type="int" name="NGY">    20</i>
   <i type="int" name="NGZ">    20</i>
   <i type="int" name="NGXF">    40</i>
   <i type="int" name="NGYF">    40</i>
   <i type="int" name="NGZF">    40</i>
   <i type="logical" name="ADDGRID"> F  </i>
  </separator>
  <separator name="ionic" >
   <i type="int" name="NSW">     0</i>
   <i type="int" name="IBRION">    -1</i>
   <i type="int" name="MDALGO">     0</i>
   <i type="int" name="ISIF">     2</i>
   <i name="PSTRESS">      0.00000000</i>
   <i name="EDIFFG">      0.00100000</i>
   <i type="int" name="NFREE">     0</i>
   <i name="POTIM">      0.50000000</i>
   <i name="SMASS">     -3.00000000</i>
   <i name="SCALEE">      1.00000000</i>
  </separator>
  <separator name="ionic md" >
   <i name="TEBEG">      0.00010000</i>
   <i name="TEEND">      0.00010000</i>
   <i type="int" name="NBLOCK">     1</i>
   <i type="int" name="KBLOCK">     1</i>
   <i type="int" name="NPACO">   256</i>
   <i name="APACO">     16.00000000</i>
  </separator>
  <separator name="symmetry" >
   <i type="int" name="ISYM">     2</i>
   <i name="SYMPREC">      0.00001000</i>
  </separator>
  <separator name="dos" >
   <i type="int" name="LORBIT">    11</i>
   <v name="RWIGS">     -1.00000000     -1.00000000</v>
   <i type="int" name="NEDOS">   301</i>
   <i name="EMIN">     10.00000000</i>
   <i name="EMAX">    -10.00000000</i>
   <i name="EFERMI">      0.00000000</i>
  </separator>
  <separator name="writing" >
   <i type="int" name="NWRITE">     2</i>
   <i type="logical" name="LWAVE"> F  </i>
   <i type="logical" name="LDOWNSAMPLE"> F  </i>
   <i type="logical" name="LCHARG"> F  </i>
   <i type="logical" name="LPARD"> F  </i>
   <i type="logical" name="LVTOT"> F  </i>
   <i type="logical" name="LVHAR"> F  </i>
   <i type="logical" name="LELF"> F  </i>
   <i type="logical" name="LOPTICS"> F  </i>
   <v name="STM">      0.00000000      0.00000000      0.00000000      0.00000000      0.00000000      0.00000000      0.00000000</v>
  </separator>
  <separator name="performance" >
   <i type="int" name="NPAR">     2</i>
   <i type="int" name="NSIM">     4</i>
   <i type="int" name="NBLK">    -1</i>
   <i type="logical" name="LPLANE"> T  </i>
   <i type="logical" name="LSCALAPACK"> T  </i>
   <i type="logical" name="LSCAAWARE"> F  </i>
   <i type="logical" name="LSCALU"> F  </i>
   <i type="logical" name="LASYNC"> F  </i>
   <i type="logical" name="LORBITALREAL"> F  </i>
  </separator>
  <separator name="miscellaneous" >
   <i type="int" name="IDIOT">     3</i>
   <i type="int" name="ISPECIAL">     0</i>
   <i type="logical" name="LMUSIC"> F  </i>
   <v name="POMASS">    107.86800000     18.99800000</v>
   <v name="DARWINR">      0.00000000      0.00000000</v>
   <v name="DARWINV">      1.00000000      1.00000000</v>
   <i type="logical" name="LCORR"> T  </i>
  </separator>
  <i type="logical" name="GGA_COMPAT"> T  </i>
  <i type="logical" name="LBERRY"> F  </i>
  <i type="int" name="ICORELEVEL">     0</i>
  <i type="logical" name="LDAU"> F  </i>
  <i type="int" name="I_CONSTRAINED_M">     0</i>
  <separator name="electronic exchange-correlation" >
   <i type="string" name="GGA">--</i>
   <i type="int" name="VOSKOWN">     0</i>
   <i type="logical" name="LHFCALC"> F  </i>
   <i type="string" name="PRECFOCK"></i>
   <i type="logical" name="LSYMGRAD"> F  </i>
   <i type="logical" name="LHFONE"> F  </i>
   <i type="logical" name="LRHFCALC"> F  </i>
   <i type="logical" name="LTHOMAS"> F  </i>
   <i type="logical" name="LMODELHF"> F  </i>
   <i name="ENCUT4O">     -1.00000000</i>
   <i type="int" name="EXXOEP">     0</i>
   <i type="int" name="FOURORBIT">     0</i>
   <i name="AEXX">      0.00000000</i>
   <i name="HFALPHA">      0.00000000</i>
   <i name="MCALPHA">      0.00000000</i>
   <i name="ALDAX">      1.00000000</i>
   <i name="AGGAX">      1.00000000</i>
   <i name="ALDAC">      1.00000000</i>
   <i name="AGGAC">      1.00000000</i>
   <i type="int" name="NKREDX">     1</i>
   <i type="int" name="NKREDY">     1</i>
   <i type="int" name="NKREDZ">     1</i>
   <i type="logical" name="SHIFTRED"> F  </i>
   <i type="logical" name="ODDONLY"> F  </i>
   <i type="logical" name="EVENONLY"> F  </i>
   <i type="int" name="LMAXFOCK">     0</i>
   <i type="int" name="NMAXFOCKAE">     0</i>
   <i type="logical" name="LFOCKAEDFT"> F  </i>
   <i name="HFSCREEN">      0.00000000</i>
   <i name="HFSCREENC">      0.00000000</i>
   <i type="int" name="NBANDSGWLOW">     0</i>
  </separator>
  <separator name="vdW DFT" >
   <i type="logical" name="LUSE_VDW"> F  </i>
   <i name="Zab_VDW">     -0.84910000</i>
   <i name="PARAM1">      0.12340000</i>
   <i name="PARAM2">      1.00000000</i>
   <i name="PARAM3">      0.00000000</i>
  </separator>
  <separator name="model GW" >
   <i type="int" name="MODEL_GW">     0</i>
   <i name="MODEL_EPS0">      8.94181849</i>
   <i name="MODEL_ALPHA">      1.00000000</i>
  </separator>
  <separator name="linear response parameters" >
   <i type="logical" name="LEPSILON"> F  </i>
   <i type="logical" name="LRPA"> F  </i>
   <i type="logical" name="LNABLA"> F  </i>
   <i type="logical" name="LVEL"> F  </i>
   <i type="int" name="KINTER">     0</i>
   <i name="CSHIFT">      0.10000000</i>
   <i name="OMEGAMAX">     -1.00000000</i>
   <i name="DEG_THRESHOLD">      0.00200000</i>
   <i name="RTIME">     -0.10000000</i>
   <i name="WPLASMAI">      0.00000000</i>
   <v name="DFIELD">      0.00000000      0.00000000      0.00000000</v>
   <v name="WPLASMA">      0.00000000      0.00000000      0.00000000      0.00000000      0.00000000      0.00000000      0.00000000      0.00000000      0.00000000</v>
  </separator>
  <separator name="orbital magnetization" >
   <i type="logical" name="NUCIND"> F  </i>
   <v name="MAGPOS">      0.00000000      0.00000000      0.00000000</v>
   <i type="logical" name="LNICSALL"> T  </i>
   <i type="logical" name="ORBITALMAG"> F  </i>
   <i type="logical" name="LMAGBLOCH"> F  </i>
   <i type="logical" name="LCHIMAG"> F  </i>
   <i type="logical" name="LGAUGE"> T  </i>
   <i type="int" name="MAGATOM">     0</i>
   <v name="MAGDIPOL">      0.00000000      0.00000000      0.00000000</v>
   <v name="AVECCONST">      0.00000000      0.00000000      0.00000000</v>
  </separator>
  <separator name="response functions" >
   <i type="logical" name="LADDER"> F  </i>
   <i type="logical" name="LRPAFORCE"> F  </i>
   <i type="logical" name="LFXC"> F  </i>
   <i type="logical" name="LHARTREE"> T  </i>
   <i type="int" name="IBSE">     0</i>
   <v type="int" name="KPOINT">    -1     0     0     0</v>
   <i type="logical" name="LTCTE"> F  </i>
   <i type="logical" name="LTETE"> F  </i>
   <i type="logical" name="LTRIPLET"> F  </i>
   <i type="logical" name="LFXCEPS"> F  </i>
   <i type="logical" name="LFXHEG"> F  </i>
   <i type="int" name="NATURALO">     2</i>
   <i type="logical" name="L2ORDER"> F  </i>
   <i type="logical" name="LMP2LT"> F  </i>
   <i type="logical" name="LUSEW"> F  </i>
   <i name="ENCUTGW">     -2.00000000</i>
   <i name="ENCUTGWSOFT">     -2.00000000</i>
   <i name="ENCUTLF">     -1.00000000</i>
   <i type="int" name="LMAXMP2">    -1</i>
   <i name="SCISSOR">      0.00000000</i>
   <i type="int" name="NOMEGA">     0</i>
   <i type="int" name="NOMEGAR">     0</i>
   <i type="int" name="NBANDSGW">    -1</i>
   <i type="int" name="NBANDSO">    -1</i>
   <i type="int" name="NBANDSV">    -1</i>
   <i type="int" name="NELM">     1</i>
   <i type="int" name="NELMHF">     1</i>
   <i type="int" name="DIM">     3</i>
   <i type="int" name="ANTIRES">     0</i>
   <i name="OMEGAMAX">    -30.00000000</i>
   <i name="OMEGAMIN">    -30.00000000</i>
   <i name="OMEGATL">   -200.00000000</i>
   <i type="int" name="OMEGAGRID">   140</i>
   <i name="CSHIFT">     -0.10000000</i>
   <i type="logical" name="SELFENERGY"> F  </i>
   <i type="logical" name="LSPECTRAL"> F  </i>
   <i type="logical" name="LSPECTRALGW"> F  </i>
   <i type="logical" name="LSINGLES"> F  </i>
   <i type="logical" name="LFERMIGW"> F  </i>
   <i type="logical" name="ODDONLYGW"> F  </i>
   <i type="logical" name="EVENONLYGW"> F  </i>
   <i type="int" name="NKREDLFX">     1</i>
   <i type="int" name="NKREDLFY">     1</i>
   <i type="int" name="NKREDLFZ">     1</i>
   <i type="int" name="MAXMEM">  2800</i>
   <i type="int" name="TELESCOPE">     0</i>
   <i type="int" name="TAUPAR">     1</i>
   <i type="int" name="OMEGAPAR">    -1</i>
   <i name="LAMBDA">      1.00000000</i>
  </separator>
  <separator name="External order field" >
   <i name="OFIELD_KAPPA">      0.00000000</i>
   <v name="OFIELD_K">      0.00000000      0.00000000      0.00000000</v>
   <i name="OFIELD_Q6_NEAR">      0.00000000</i>
   <i name="OFIELD_Q6_FAR">      0.00000000</i>
   <i name="OFIELD_A">      0.00000000</i>
  </separator>
 </parameters>
 <atominfo>
  <atoms>       2 </atoms>
  <types>       2 </types>
  <array name="atoms" >
   <dimension dim="1">ion</dimension>
   <field type="string">element</field>
   <field type="int">atomtype</field>
   <set>
    <rc><c>Ag</c><c>   1</c></rc>
    <rc><c>F </c><c>   2</c></rc>
   </set>
  </array>
  <array name="atomtypes" >
   <dimension dim="1">type</dimension>
   <field type="int">atomspertype</field>
   <field type="string">element</field>
   <field>mass</field>
   <field>valence</field>
   <field type="string">pseudopotential</field>
   <set>
    <rc><c>   1</c><c>Ag</c><c>    107.86800000</c><c>     11.00000000</c><c>  PAW_PBE Ag 02Apr2005                  </c></rc>
    <rc><c>   1</c><c>F </c><c>     18.99800000</c><c>      7.00000000</c><c>  PAW_PBE F 08Apr2002                   </c></rc>
   </set>
  </array>
 </atominfo>
 <structure name="initialpos" >
  <crystal>
   <varray name="basis" >
    <v>       3.01395775       0.00000000       1.74010806 </v>
    <v>       1.00465292       2.84158622       1.74010806 </v>
    <v>      -0.00000002      -0.00000001       3.48021917 </v>
   </varray>
   <i name="volume">     29.80606162 </i>
   <varray name="rec_basis" >
    <v>       0.33178965      -0.11730541       0.00000000 </v>
    <v>      -0.00000000       0.35191612       0.00000000 </v>
    <v>      -0.16589468      -0.11730525       0.28733822 </v>
   </varray>
  </crystal>
  <varray name="positions" >
   <v>       0.00000000       0.00000000       0.00000000 </v>
   <v>       0.50000000       0.50000000       0.50000000 </v>
  </varray>
 </structure>
 <calculation>
  <scstep>
   <time name="dav">    0.01    0.01</time>
   <time name="total">    0.09    0.12</time>
   <energy>
    <i name="alphaZ">     61.84911921 </i>
    <i name="ewald">  -1385.69313289 </i>
    <i name="hartreedc">   -411.39312044 </i>
    <i name="XCdc">     25.89959818 </i>
    <i name="pawpsdc">   1542.66995988 </i>
    <i name="pawaedc">  -1501.65866420 </i>
    <i name="eentropy">     -0.00000000 </i>
    <i name="bandstr">     37.66536955 </i>
    <i name="atom">   1694.85739942 </i>
    <i name="e_fr_energy">     64.19652871 </i>
    <i name="e_wo_entrp">     64.19652871 </i>
    <i name="e_0_energy">     64.19652871 </i>
   </energy>
  </scstep>
  <scstep>
   <time name="dav">    0.01    0.01</time>
   <time name="total">    0.01    0.01</time>
   <energy>
    <i name="e_fr_energy">     -5.49224851 </i>
    <i name="e_wo_entrp">     -5.47902905 </i>
    <i name="e_0_energy">     -5.48563878 </i>
   </energy>
  </scstep>
  <scstep>
   <time name="dav">    0.01    0.01</time>
   <time name="total">    0.01    0.01</time>
   <energy>
    <i name="e_fr_energy">     -6.70820697 </i>
    <i name="e_wo_entrp">     -6.69365097 </i>
    <i name="e_0_energy">     -6.70092897 </i>
   </energy>
  </scstep>
  <scstep>
   <time name="dav">    0.01    0.01</time>
   <time name="total">    0.01    0.01</time>
   <energy>
    <i name="e_fr_energy">     -6.71083350 </i>
    <i name="e_wo_entrp">     -6.69627745 </i>
    <i name="e_0_energy">     -6.70355548 </i>
   </energy>
  </scstep>
  <scstep>
   <time name="dav">    0.01    0.01</time>
   <time name="total">    0.01    0.01</time>
   <energy>
    <i name="e_fr_energy">     -6.71084785 </i>
    <i name="e_wo_entrp">     -6.69629180 </i>
    <i name="e_0_energy">     -6.70356983 </i>
   </energy>
  </scstep>
  <scstep>
   <time name="dav">    0.01    0.01</time>
   <time name="total">    0.09    0.09</time>
   <energy>
    <i name="e_fr_energy">     -6.09094814 </i>
    <i name="e_wo_entrp">     -6.07639365 </i>
    <i name="e_0_energy">     -6.08367089 </i>
   </energy>
  </scstep>
  <scstep>
   <time name="dav">    0.01    0.01</time>
   <time name="total">    0.09    0.09</time>
   <energy>
    <i name="e_fr_energy">     -6.03593373 </i>
    <i name="e_wo_entrp">     -6.02138063 </i>
    <i name="e_0_energy">     -6.02865718 </i>
   </energy>
  </scstep>
  <scstep>
   <time name="dav">    0.01    0.01</time>
   <time name="total">    0.09    0.09</time>
   <energy>
    <i name="e_fr_energy">     -6.01195214 </i>
    <i name="e_wo_entrp">     -5.99739611 </i>
    <i name="e_0_energy">     -6.00467413 </i>
   </energy>
  </scstep>
  <scstep>
   <time name="dav">    0.01    0.01</time>
   <time name="total">    0.09    0.09</time>
   <energy>
    <i name="alphaZ">     61.84911921 </i>
    <i name="ewald">  -1385.69313289 </i>
    <i name="hartreedc">   -419.57408491 </i>
    <i name="XCdc">     26.42444899 </i>
    <i name="pawpsdc">   1750.13752984 </i>
    <i name="pawaedc">  -1708.22049235 </i>
    <i name="eentropy">     -0.01455604 </i>
    <i name="bandstr">    -25.77810156 </i>
    <i name="atom">   1694.85739942 </i>
    <i name="e_fr_energy">     -6.01187030 </i>
    <i name="e_wo_entrp">     -5.99731426 </i>
    <i name="e_0_energy">     -6.00459228 </i>
   </energy>
  </scstep>
  <structure>
   <crystal>
    <varray name="basis" >
     <v>       3.01395775       0.00000000       1.74010806 </v>
     <v>       1.00465292       2.84158622       1.74010806 </v>
     <v>      -0.00000002      -0.00000001       3.48021917 </v>
    </varray>
    <i name="volume">     29.80606162 </i>
    <varray name="rec_basis" >
     <v>       0.33178965      -0.11730541       0.00000000 </v>
     <v>      -0.00000000       0.35191612       0.00000000 </v>
     <v>      -0.16589468      -0.11730525       0.28733822 </v>
    </varray>
   </crystal>
   <varray name="positions" >
    <v>       0.00000000       0.00000000       0.00000000 </v>
    <v>       0.50000000       0.50000000       0.50000000 </v>
   </varray>
  </structure>
  <varray name="forces" >
   <v>       0.00000000      -0.00000000      -0.00000000 </v>
   <v>      -0.00000000       0.00000000       0.00000000 </v>
  </varray>
  <varray name="stress" >
   <v>    -409.44527181      -0.00005015       0.00020952 </v>
   <v>      -0.00005015    -409.44515546       0.00014767 </v>
   <v>       0.00020952       0.00014767    -409.44539461 </v>
  </varray>
  <energy>
   <i name="e_fr_energy">     -6.01187030 </i>
   <i name="e_wo_entrp">     -6.00459228 </i>
   <i name="e_0_energy">     -0.01455604 </i>
  </energy>
  <time name="totalsc">    0.68    0.70</time>
  <eigenvalues>
   <array>
    <dimension dim="1">band</dimension>
    <dimension dim="2">kpoint</dimension>
    <dimension dim="3">spin</dimension>
    <field>eigene</field>
    <field>occ</field>
    <set>
     <set comment="spin 1">
      <set comment="kpoint 1">
       <r>  -19.0723    1.0000 </r>
       <r>   -0.1135    1.0000 </r>
       <r>   -0.1135    1.0000 </r>
       <r>   -0.1135    1.0000 </r>
       <r>    1.1608    1.0000 </r>
       <r>    1.1608    1.0000 </r>
       <r>    1.1608    1.0000 </r>
       <r>    1.5005    1.0000 </r>
       <r>    1.5005    1.0000 </r>
       <r>    2.7063    1.0000 </r>
       <r>   18.5600    0.0000 </r>
       <r>   21.4253    0.0000 </r>
       <r>   21.4253    0.0000 </r>
       <r>   21.4253    0.0000 </r>
      </set>
      <set comment="kpoint 2">
       <r>  -18.9068    1.0000 </r>
       <r>   -2.2313    1.0000 </r>
       <r>   -1.3440    1.0000 </r>
       <r>   -1.3440    1.0000 </r>
       <r>    1.7233    1.0000 </r>
       <r>    1.7234    1.0000 </r>
       <r>    1.8503    1.0000 </r>
       <r>    3.0788    0.8751 </r>
       <r>    3.0788    0.8749 </r>
       <r>    8.1355    0.0000 </r>
       <r>    9.2429    0.0000 </r>
       <r>   16.3292    0.0000 </r>
       <r>   16.3293    0.0000 </r>
       <r>   21.7210    0.0000 </r>
      </set>
      <set comment="kpoint 3">
       <r>  -18.9135    1.0000 </r>
       <r>   -1.3921    1.0000 </r>
       <r>   -0.4706    1.0000 </r>
       <r>   -0.4706    1.0000 </r>
       <r>    0.5992    1.0000 </r>
       <r>    1.5130    1.0000 </r>
       <r>    1.7978    1.0000 </r>
       <r>    1.9477    1.0000 </r>
       <r>    1.9477    1.0000 </r>
       <r>    8.6357    0.0000 </r>
       <r>   10.3772    0.0000 </r>
       <r>   15.8988    0.0000 </r>
       <r>   15.8989    0.0000 </r>
       <r>   16.1099    0.0000 </r>
      </set>
     </set>
    </set>
   </array>
  </eigenvalues>
  <separator name="orbital magnetization" >
   <v name="MAGDIPOLOUT">      0.00000000      0.00000000      0.00000000</v>
  </separator>
  <dos>
   <i name="efermi">      3.11945724 </i>
   <total>
    <array>
     <dimension dim="1">gridpoints</dimension>
     <dimension dim="2">spin</dimension>
     <field>energy</field>
     <field>total</field>
     <field>integrated</field>
     <set>
      <set comment="spin 1">
       <r>   -21.1120     0.0000     0.0000 </r>
       <r>   -20.9624     0.0000     0.0000 </r>
       <r>   -20.8128     0.0000     0.0000 </r>
       <r>   -20.6632     0.0000     0.0000 </r>
       <r>   -20.5137     0.0000     0.0000 </r>
       <r>   -20.3641     0.0000     0.0000 </r>
       <r>   -20.2145     0.0000     0.0000 </r>
       <r>   -20.0649     0.0000     0.0000 </r>
       <r>   -19.9154     0.0000     0.0000 </r>
       <r>   -19.7658     0.0000     0.0000 </r>
       <r>   -19.6162     0.0000     0.0000 </r>
       <r>   -19.4666     0.0000     0.0000 </r>
       <r>   -19.3171     0.0000     0.0000 </r>
       <r>   -19.1675     0.0059     0.0009 </r>
       <r>   -19.0179     1.5754     0.2365 </r>
       <r>   -18.8683    10.3624     1.7865 </r>
       <r>   -18.7188     1.4275     2.0000 </r>
       <r>   -18.5692     0.0000     2.0000 </r>
       <r>   -18.4196     0.0000     2.0000 </r>
       <r>   -18.2700     0.0000     2.0000 </r>
       <r>   -18.1205     0.0000     2.0000 </r>
       <r>   -17.9709     0.0000     2.0000 </r>
       <r>   -17.8213     0.0000     2.0000 </r>
       <r>   -17.6717     0.0000     2.0000 </r>
       <r>   -17.5222     0.0000     2.0000 </r>
       <r>   -17.3726     0.0000     2.0000 </r>
       <r>   -17.2230     0.0000     2.0000 </r>
       <r>   -17.0734     0.0000     2.0000 </r>
       <r>   -16.9239     0.0000     2.0000 </r>
       <r>   -16.7743     0.0000     2.0000 </r>
       <r>   -16.6247     0.0000     2.0000 </r>
       <r>   -16.4751     0.0000     2.0000 </r>
       <r>   -16.3255     0.0000     2.0000 </r>
       <r>   -16.1760     0.0000     2.0000 </r>
       <r>   -16.0264     0.0000     2.0000 </r>
       <r>   -15.8768     0.0000     2.0000 </r>
       <r>   -15.7272     0.0000     2.0000 </r>
       <r>   -15.5777     0.0000     2.0000 </r>
       <r>   -15.4281     0.0000     2.0000 </r>
       <r>   -15.2785     0.0000     2.0000 </r>
       <r>   -15.1289     0.0000     2.0000 </r>
       <r>   -14.9794     0.0000     2.0000 </r>
       <r>   -14.8298     0.0000     2.0000 </r>
       <r>   -14.6802     0.0000     2.0000 </r>
       <r>   -14.5306     0.0000     2.0000 </r>
       <r>   -14.3811     0.0000     2.0000 </r>
       <r>   -14.2315     0.0000     2.0000 </r>
       <r>   -14.0819     0.0000     2.0000 </r>
       <r>   -13.9323     0.0000     2.0000 </r>
       <r>   -13.7828     0.0000     2.0000 </r>
       <r>   -13.6332     0.0000     2.0000 </r>
       <r>   -13.4836     0.0000     2.0000 </r>
       <r>   -13.3340     0.0000     2.0000 </r>
       <r>   -13.1845     0.0000     2.0000 </r>
       <r>   -13.0349     0.0000     2.0000 </r>
       <r>   -12.8853     0.0000     2.0000 </r>
       <r>   -12.7357     0.0000     2.0000 </r>
       <r>   -12.5862     0.0000     2.0000 </r>
       <r>   -12.4366     0.0000     2.0000 </r>
       <r>   -12.2870     0.0000     2.0000 </r>
       <r>   -12.1374     0.0000     2.0000 </r>
       <r>   -11.9879     0.0000     2.0000 </r>
       <r>   -11.8383     0.0000     2.0000 </r>
       <r>   -11.6887     0.0000     2.0000 </r>
       <r>   -11.5391     0.0000     2.0000 </r>
       <r>   -11.3896     0.0000     2.0000 </r>
       <r>   -11.2400     0.0000     2.0000 </r>
       <r>   -11.0904     0.0000     2.0000 </r>
       <r>   -10.9408     0.0000     2.0000 </r>
       <r>   -10.7913     0.0000     2.0000 </r>
       <r>   -10.6417     0.0000     2.0000 </r>
       <r>   -10.4921     0.0000     2.0000 </r>
       <r>   -10.3425     0.0000     2.0000 </r>
       <r>   -10.1930     0.0000     2.0000 </r>
       <r>   -10.0434     0.0000     2.0000 </r>
       <r>    -9.8938     0.0000     2.0000 </r>
       <r>    -9.7442     0.0000     2.0000 </r>
       <r>    -9.5947     0.0000     2.0000 </r>
       <r>    -9.4451     0.0000     2.0000 </r>
       <r>    -9.2955     0.0000     2.0000 </r>
       <r>    -9.1459     0.0000     2.0000 </r>
       <r>    -8.9964     0.0000     2.0000 </r>
       <r>    -8.8468     0.0000     2.0000 </r>
       <r>    -8.6972     0.0000     2.0000 </r>
       <r>    -8.5476     0.0000     2.0000 </r>
       <r>    -8.3981     0.0000     2.0000 </r>
       <r>    -8.2485     0.0000     2.0000 </r>
       <r>    -8.0989     0.0000     2.0000 </r>
       <r>    -7.9493     0.0000     2.0000 </r>
       <r>    -7.7998     0.0000     2.0000 </r>
       <r>    -7.6502     0.0000     2.0000 </r>
       <r>    -7.5006     0.0000     2.0000 </r>
       <r>    -7.3510     0.0000     2.0000 </r>
       <r>    -7.2015     0.0000     2.0000 </r>
       <r>    -7.0519     0.0000     2.0000 </r>
       <r>    -6.9023     0.0000     2.0000 </r>
       <r>    -6.7527     0.0000     2.0000 </r>
       <r>    -6.6032     0.0000     2.0000 </r>
       <r>    -6.4536     0.0000     2.0000 </r>
       <r>    -6.3040     0.0000     2.0000 </r>
       <r>    -6.1544     0.0000     2.0000 </r>
       <r>    -6.0049     0.0000     2.0000 </r>
       <r>    -5.8553     0.0000     2.0000 </r>
       <r>    -5.7057     0.0000     2.0000 </r>
       <r>    -5.5561     0.0000     2.0000 </r>
       <r>    -5.4066     0.0000     2.0000 </r>
       <r>    -5.2570     0.0000     2.0000 </r>
       <r>    -5.1074     0.0000     2.0000 </r>
       <r>    -4.9578     0.0000     2.0000 </r>
       <r>    -4.8083     0.0000     2.0000 </r>
       <r>    -4.6587     0.0000     2.0000 </r>
       <r>    -4.5091     0.0000     2.0000 </r>
       <r>    -4.3595     0.0000     2.0000 </r>
       <r>    -4.2100     0.0000     2.0000 </r>
       <r>    -4.0604     0.0000     2.0000 </r>
       <r>    -3.9108     0.0000     2.0000 </r>
       <r>    -3.7612     0.0000     2.0000 </r>
       <r>    -3.6117     0.0000     2.0000 </r>
       <r>    -3.4621     0.0000     2.0000 </r>
       <r>    -3.3125     0.0000     2.0000 </r>
       <r>    -3.1629     0.0000     2.0000 </r>
       <r>    -3.0134     0.0000     2.0000 </r>
       <r>    -2.8638     0.0000     2.0000 </r>
       <r>    -2.7142     0.0000     2.0000 </r>
       <r>    -2.5646     0.0000     2.0000 </r>
       <r>    -2.4150     0.0000     2.0000 </r>
       <r>    -2.2655     1.1136     2.1666 </r>
       <r>    -2.1159     5.5683     2.9994 </r>
       <r>    -1.9663     0.0037     3.0000 </r>
       <r>    -1.8167     0.0000     3.0000 </r>
       <r>    -1.6672     0.0000     3.0000 </r>
       <r>    -1.5176     0.0010     3.0001 </r>
       <r>    -1.3680     7.0951     4.0614 </r>
       <r>    -1.2184    11.2868     5.7496 </r>
       <r>    -1.0689     0.0026     5.7500 </r>
       <r>    -0.9193     0.0000     5.7500 </r>
       <r>    -0.7697     0.0000     5.7500 </r>
       <r>    -0.6201     0.0001     5.7500 </r>
       <r>    -0.4706     5.0190     6.5007 </r>
       <r>    -0.3210     5.0092     7.2500 </r>
       <r>    -0.1714     0.2544     7.2880 </r>
       <r>    -0.0218     4.7360     7.9964 </r>
       <r>     0.1277     0.0239     8.0000 </r>
       <r>     0.2773     0.0000     8.0000 </r>
       <r>     0.4269     0.0000     8.0000 </r>
       <r>     0.5765     1.3039     8.1950 </r>
       <r>     0.7260     3.7095     8.7499 </r>
       <r>     0.8756     0.0008     8.7500 </r>
       <r>     1.0252     0.0003     8.7500 </r>
       <r>     1.1748     3.2763     9.2401 </r>
       <r>     1.3243     1.7376     9.5000 </r>
       <r>     1.4739     1.4297     9.7139 </r>
       <r>     1.6235     6.9536    10.7539 </r>
       <r>     1.7731    13.5887    12.7865 </r>
       <r>     1.9226    13.7134    14.8377 </r>
       <r>     2.0722     7.7687    15.9997 </r>
       <r>     2.2218     0.0022    16.0000 </r>
       <r>     2.3714     0.0000    16.0000 </r>
       <r>     2.5209     0.0000    16.0000 </r>
       <r>     2.6705     0.2602    16.0389 </r>
       <r>     2.8201     1.4101    16.2498 </r>
       <r>     2.9697     0.0146    16.2520 </r>
       <r>     3.1192    11.6689    17.9974 </r>
       <r>     3.2688     1.6887    18.2500 </r>
       <r>     3.4184     0.0000    18.2500 </r>
       <r>     3.5680     0.0000    18.2500 </r>
       <r>     3.7175     0.0000    18.2500 </r>
       <r>     3.8671     0.0000    18.2500 </r>
       <r>     4.0167     0.0000    18.2500 </r>
       <r>     4.1663     0.0000    18.2500 </r>
       <r>     4.3158     0.0000    18.2500 </r>
       <r>     4.4654     0.0000    18.2500 </r>
       <r>     4.6150     0.0000    18.2500 </r>
       <r>     4.7646     0.0000    18.2500 </r>
       <r>     4.9141     0.0000    18.2500 </r>
       <r>     5.0637     0.0000    18.2500 </r>
       <r>     5.2133     0.0000    18.2500 </r>
       <r>     5.3629     0.0000    18.2500 </r>
       <r>     5.5124     0.0000    18.2500 </r>
       <r>     5.6620     0.0000    18.2500 </r>
       <r>     5.8116     0.0000    18.2500 </r>
       <r>     5.9612     0.0000    18.2500 </r>
       <r>     6.1107     0.0000    18.2500 </r>
       <r>     6.2603     0.0000    18.2500 </r>
       <r>     6.4099     0.0000    18.2500 </r>
       <r>     6.5595     0.0000    18.2500 </r>
       <r>     6.7090     0.0000    18.2500 </r>
       <r>     6.8586     0.0000    18.2500 </r>
       <r>     7.0082     0.0000    18.2500 </r>
       <r>     7.1578     0.0000    18.2500 </r>
       <r>     7.3073     0.0000    18.2500 </r>
       <r>     7.4569     0.0000    18.2500 </r>
       <r>     7.6065     0.0000    18.2500 </r>
       <r>     7.7561     0.0000    18.2500 </r>
       <r>     7.9056     0.0000    18.2500 </r>
       <r>     8.0552     0.0775    18.2616 </r>
       <r>     8.2048     6.4410    19.2250 </r>
       <r>     8.3544     0.1671    19.2500 </r>
       <r>     8.5039     0.0005    19.2501 </r>
       <r>     8.6535     3.4725    19.7695 </r>
       <r>     8.8031     1.5413    20.0000 </r>
       <r>     8.9527     0.0000    20.0000 </r>
       <r>     9.1022     0.0002    20.0000 </r>
       <r>     9.2518     4.0111    20.6000 </r>
       <r>     9.4014     2.6742    21.0000 </r>
       <r>     9.5510     0.0000    21.0000 </r>
       <r>     9.7005     0.0000    21.0000 </r>
       <r>     9.8501     0.0000    21.0000 </r>
       <r>     9.9997     0.0000    21.0000 </r>
       <r>    10.1493     0.0000    21.0000 </r>
       <r>    10.2988     0.0670    21.0100 </r>
       <r>    10.4484     4.8372    21.7335 </r>
       <r>    10.5980     0.1100    21.7500 </r>
       <r>    10.7476     0.0000    21.7500 </r>
       <r>    10.8971     0.0000    21.7500 </r>
       <r>    11.0467     0.0000    21.7500 </r>
       <r>    11.1963     0.0000    21.7500 </r>
       <r>    11.3459     0.0000    21.7500 </r>
       <r>    11.4955     0.0000    21.7500 </r>
       <r>    11.6450     0.0000    21.7500 </r>
       <r>    11.7946     0.0000    21.7500 </r>
       <r>    11.9442     0.0000    21.7500 </r>
       <r>    12.0938     0.0000    21.7500 </r>
       <r>    12.2433     0.0000    21.7500 </r>
       <r>    12.3929     0.0000    21.7500 </r>
       <r>    12.5425     0.0000    21.7500 </r>
       <r>    12.6921     0.0000    21.7500 </r>
       <r>    12.8416     0.0000    21.7500 </r>
       <r>    12.9912     0.0000    21.7500 </r>
       <r>    13.1408     0.0000    21.7500 </r>
       <r>    13.2904     0.0000    21.7500 </r>
       <r>    13.4399     0.0000    21.7500 </r>
       <r>    13.5895     0.0000    21.7500 </r>
       <r>    13.7391     0.0000    21.7500 </r>
       <r>    13.8887     0.0000    21.7500 </r>
       <r>    14.0382     0.0000    21.7500 </r>
       <r>    14.1878     0.0000    21.7500 </r>
       <r>    14.3374     0.0000    21.7500 </r>
       <r>    14.4870     0.0000    21.7500 </r>
       <r>    14.6365     0.0000    21.7500 </r>
       <r>    14.7861     0.0000    21.7500 </r>
       <r>    14.9357     0.0000    21.7500 </r>
       <r>    15.0853     0.0000    21.7500 </r>
       <r>    15.2348     0.0000    21.7500 </r>
       <r>    15.3844     0.0000    21.7500 </r>
       <r>    15.5340     0.0000    21.7500 </r>
       <r>    15.6836     0.0000    21.7500 </r>
       <r>    15.8331     0.3160    21.7973 </r>
       <r>    15.9827     9.6244    23.2368 </r>
       <r>    16.1323     3.7816    23.8025 </r>
       <r>    16.2819     2.5254    24.1802 </r>
       <r>    16.4314    12.1407    25.9962 </r>
       <r>    16.5810     0.0257    26.0000 </r>
       <r>    16.7306     0.0000    26.0000 </r>
       <r>    16.8802     0.0000    26.0000 </r>
       <r>    17.0297     0.0000    26.0000 </r>
       <r>    17.1793     0.0000    26.0000 </r>
       <r>    17.3289     0.0000    26.0000 </r>
       <r>    17.4785     0.0000    26.0000 </r>
       <r>    17.6280     0.0000    26.0000 </r>
       <r>    17.7776     0.0000    26.0000 </r>
       <r>    17.9272     0.0000    26.0000 </r>
       <r>    18.0768     0.0000    26.0000 </r>
       <r>    18.2263     0.0000    26.0000 </r>
       <r>    18.3759     0.0000    26.0000 </r>
       <r>    18.5255     0.2745    26.0411 </r>
       <r>    18.6751     1.3959    26.2499 </r>
       <r>    18.8246     0.0010    26.2500 </r>
       <r>    18.9742     0.0000    26.2500 </r>
       <r>    19.1238     0.0000    26.2500 </r>
       <r>    19.2734     0.0000    26.2500 </r>
       <r>    19.4229     0.0000    26.2500 </r>
       <r>    19.5725     0.0000    26.2500 </r>
       <r>    19.7221     0.0000    26.2500 </r>
       <r>    19.8717     0.0000    26.2500 </r>
       <r>    20.0212     0.0000    26.2500 </r>
       <r>    20.1708     0.0000    26.2500 </r>
       <r>    20.3204     0.0000    26.2500 </r>
       <r>    20.4700     0.0000    26.2500 </r>
       <r>    20.6195     0.0000    26.2500 </r>
       <r>    20.7691     0.0000    26.2500 </r>
       <r>    20.9187     0.0000    26.2500 </r>
       <r>    21.0683     0.0000    26.2500 </r>
       <r>    21.2178     0.0000    26.2500 </r>
       <r>    21.3674     0.2547    26.2881 </r>
       <r>    21.5170     4.7357    26.9964 </r>
       <r>    21.6666     0.4382    27.0620 </r>
       <r>    21.8161     6.2475    27.9965 </r>
       <r>    21.9657     0.0237    28.0000 </r>
       <r>    22.1153     0.0000    28.0000 </r>
       <r>    22.2649     0.0000    28.0000 </r>
       <r>    22.4144     0.0000    28.0000 </r>
       <r>    22.5640     0.0000    28.0000 </r>
       <r>    22.7136     0.0000    28.0000 </r>
       <r>    22.8632     0.0000    28.0000 </r>
       <r>    23.0127     0.0000    28.0000 </r>
       <r>    23.1623     0.0000    28.0000 </r>
       <r>    23.3119     0.0000    28.0000 </r>
       <r>    23.4615     0.0000    28.0000 </r>
       <r>    23.6110     0.0000    28.0000 </r>
       <r>    23.7606     0.0000    28.0000 </r>
      </set>
     </set>
    </array>
   </total>
   <partial>
    <array>
     <dimension dim="1">gridpoints</dimension>
     <dimension dim="2">spin</dimension>
     <dimension dim="3">ion</dimension>
     <field>energy</field>
     <field>    s</field>
     <field>   py</field>
     <field>   pz</field>
     <field>   px</field>
     <field>  dxy</field>
     <field>  dyz</field>
     <field>  dz2</field>
     <field>  dxz</field>
     <field>x2-y2</field>
     <set>
      <set comment="ion 1">
       <set comment="spin 1">
        <r>   -21.1120     0.0000     0.0000     0.0000     0.0000     0.0000     0.0000     0.0000     0.0000     0.0000 </r>
        <r>   -20.9624     0.0000     0.0000     0.0000     0.0000     0.0000     0.0000     0.0000     0.0000     0.0000 </r>
        <r>   -20.8128     0.0000     0.0000     0.0000     0.0000     0.0000     0.0000     0.0000     0.0000     0.0000 </r>
        <r>   -20.6632     0.0000     0.0000     0.0000     0.0000     0.0000     0.0000     0.0000     0.0000     0.0000 </r>
        <r>   -20.5137     0.0000     0.0000     0.0000     0.0000     0.0000     0.0000     0.0000     0.0000     0.0000 </r>
        <r>   -20.3641     0.0000     0.0000     0.0000     0.0000     0.0000     0.0000     0.0000     0.0000     0.0000 </r>
        <r>   -20.2145     0.0000     0.0000     0.0000     0.0000     0.0000     0.0000     0.0000     0.0000     0.0000 </r>
        <r>   -20.0649     0.0000     0.0000     0.0000     0.0000     0.0000     0.0000     0.0000     0.0000     0.0000 </r>
        <r>   -19.9154     0.0000     0.0000     0.0000     0.0000     0.0000     0.0000     0.0000     0.0000     0.0000 </r>
        <r>   -19.7658     0.0000     0.0000     0.0000     0.0000     0.0000     0.0000     0.0000     0.0000     0.0000 </r>
        <r>   -19.6162     0.0000     0.0000     0.0000     0.0000     0.0000     0.0000     0.0000     0.0000     0.0000 </r>
        <r>   -19.4666     0.0000     0.0000     0.0000     0.0000     0.0000     0.0000     0.0000     0.0000     0.0000 </r>
        <r>   -19.3171     0.0000     0.0000     0.0000     0.0000     0.0000     0.0000     0.0000     0.0000     0.0000 </r>
        <r>   -19.1675     0.0001     0.0000     0.0000     0.0000     0.0000     0.0000     0.0000     0.0000     0.0000 </r>
        <r>   -19.0179     0.0189     0.0000     0.0000     0.0000     0.0000     0.0000     0.0000     0.0000     0.0000 </r>
        <r>   -18.8683     0.0070     0.0035     0.0000     0.0277     0.0264     0.0000     0.0099     0.0000     0.0033 </r>
        <r>   -18.7188     0.0006     0.0006     0.0000     0.0044     0.0030     0.0000     0.0011     0.0000     0.0004 </r>
        <r>   -18.5692     0.0000     0.0000     0.0000     0.0000     0.0000     0.0000     0.0000     0.0000     0.0000 </r>
        <r>   -18.4196     0.0000     0.0000     0.0000     0.0000     0.0000     0.0000     0.0000     0.0000     0.0000 </r>
        <r>   -18.2700     0.0000     0.0000     0.0000     0.0000     0.0000     0.0000     0.0000     0.0000     0.0000 </r>
        <r>   -18.1205     0.0000     0.0000     0.0000     0.0000     0.0000     0.0000     0.0000     0.0000     0.0000 </r>
        <r>   -17.9709     0.0000     0.0000     0.0000     0.0000     0.0000     0.0000     0.0000     0.0000     0.0000 </r>
        <r>   -17.8213     0.0000     0.0000     0.0000     0.0000     0.0000     0.0000     0.0000     0.0000     0.0000 </r>
        <r>   -17.6717     0.0000     0.0000     0.0000     0.0000     0.0000     0.0000     0.0000     0.0000     0.0000 </r>
        <r>   -17.5222     0.0000     0.0000     0.0000     0.0000     0.0000     0.0000     0.0000     0.0000     0.0000 </r>
        <r>   -17.3726     0.0000     0.0000     0.0000     0.0000     0.0000     0.0000     0.0000     0.0000     0.0000 </r>
        <r>   -17.2230     0.0000     0.0000     0.0000     0.0000     0.0000     0.0000     0.0000     0.0000     0.0000 </r>
        <r>   -17.0734     0.0000     0.0000     0.0000     0.0000     0.0000     0.0000     0.0000     0.0000     0.0000 </r>
        <r>   -16.9239     0.0000     0.0000     0.0000     0.0000     0.0000     0.0000     0.0000     0.0000     0.0000 </r>
        <r>   -16.7743     0.0000     0.0000     0.0000     0.0000     0.0000     0.0000     0.0000     0.0000     0.0000 </r>
        <r>   -16.6247     0.0000     0.0000     0.0000     0.0000     0.0000     0.0000     0.0000     0.0000     0.0000 </r>
        <r>   -16.4751     0.0000     0.0000     0.0000     0.0000     0.0000     0.0000     0.0000     0.0000     0.0000 </r>
        <r>   -16.3255     0.0000     0.0000     0.0000     0.0000     0.0000     0.0000     0.0000     0.0000     0.0000 </r>
        <r>   -16.1760     0.0000     0.0000     0.0000     0.0000     0.0000     0.0000     0.0000     0.0000     0.0000 </r>
        <r>   -16.0264     0.0000     0.0000     0.0000     0.0000     0.0000     0.0000     0.0000     0.0000     0.0000 </r>
        <r>   -15.8768     0.0000     0.0000     0.0000     0.0000     0.0000     0.0000     0.0000     0.0000     0.0000 </r>
        <r>   -15.7272     0.0000     0.0000     0.0000     0.0000     0.0000     0.0000     0.0000     0.0000     0.0000 </r>
        <r>   -15.5777     0.0000     0.0000     0.0000     0.0000     0.0000     0.0000     0.0000     0.0000     0.0000 </r>
        <r>   -15.4281     0.0000     0.0000     0.0000     0.0000     0.0000     0.0000     0.0000     0.0000     0.0000 </r>
        <r>   -15.2785     0.0000     0.0000     0.0000     0.0000     0.0000     0.0000     0.0000     0.0000     0.0000 </r>
        <r>   -15.1289     0.0000     0.0000     0.0000     0.0000     0.0000     0.0000     0.0000     0.0000     0.0000 </r>
        <r>   -14.9794     0.0000     0.0000     0.0000     0.0000     0.0000     0.0000     0.0000     0.0000     0.0000 </r>
        <r>   -14.8298     0.0000     0.0000     0.0000     0.0000     0.0000     0.0000     0.0000     0.0000     0.0000 </r>
        <r>   -14.6802     0.0000     0.0000     0.0000     0.0000     0.0000     0.0000     0.0000     0.0000     0.0000 </r>
        <r>   -14.5306     0.0000     0.0000     0.0000     0.0000     0.0000     0.0000     0.0000     0.0000     0.0000 </r>
        <r>   -14.3811     0.0000     0.0000     0.0000     0.0000     0.0000     0.0000     0.0000     0.0000     0.0000 </r>
        <r>   -14.2315     0.0000     0.0000     0.0000     0.0000     0.0000     0.0000     0.0000     0.0000     0.0000 </r>
        <r>   -14.0819     0.0000     0.0000     0.0000     0.0000     0.0000     0.0000     0.0000     0.0000     0.0000 </r>
        <r>   -13.9323     0.0000     0.0000     0.0000     0.0000     0.0000     0.0000     0.0000     0.0000     0.0000 </r>
        <r>   -13.7828     0.0000     0.0000     0.0000     0.0000     0.0000     0.0000     0.0000     0.0000     0.0000 </r>
        <r>   -13.6332     0.0000     0.0000     0.0000     0.0000     0.0000     0.0000     0.0000     0.0000     0.0000 </r>
        <r>   -13.4836     0.0000     0.0000     0.0000     0.0000     0.0000     0.0000     0.0000     0.0000     0.0000 </r>
        <r>   -13.3340     0.0000     0.0000     0.0000     0.0000     0.0000     0.0000     0.0000     0.0000     0.0000 </r>
        <r>   -13.1845     0.0000     0.0000     0.0000     0.0000     0.0000     0.0000     0.0000     0.0000     0.0000 </r>
        <r>   -13.0349     0.0000     0.0000     0.0000     0.0000     0.0000     0.0000     0.0000     0.0000     0.0000 </r>
        <r>   -12.8853     0.0000     0.0000     0.0000     0.0000     0.0000     0.0000     0.0000     0.0000     0.0000 </r>
        <r>   -12.7357     0.0000     0.0000     0.0000     0.0000     0.0000     0.0000     0.0000     0.0000     0.0000 </r>
        <r>   -12.5862     0.0000     0.0000     0.0000     0.0000     0.0000     0.0000     0.0000     0.0000     0.0000 </r>
        <r>   -12.4366     0.0000     0.0000     0.0000     0.0000     0.0000     0.0000     0.0000     0.0000     0.0000 </r>
        <r>   -12.2870     0.0000     0.0000     0.0000     0.0000     0.0000     0.0000     0.0000     0.0000     0.0000 </r>
        <r>   -12.1374     0.0000     0.0000     0.0000     0.0000     0.0000     0.0000     0.0000     0.0000     0.0000 </r>
        <r>   -11.9879     0.0000     0.0000     0.0000     0.0000     0.0000     0.0000     0.0000     0.0000     0.0000 </r>
        <r>   -11.8383     0.0000     0.0000     0.0000     0.0000     0.0000     0.0000     0.0000     0.0000     0.0000 </r>
        <r>   -11.6887     0.0000     0.0000     0.0000     0.0000     0.0000     0.0000     0.0000     0.0000     0.0000 </r>
        <r>   -11.5391     0.0000     0.0000     0.0000     0.0000     0.0000     0.0000     0.0000     0.0000     0.0000 </r>
        <r>   -11.3896     0.0000     0.0000     0.0000     0.0000     0.0000     0.0000     0.0000     0.0000     0.0000 </r>
        <r>   -11.2400     0.0000     0.0000     0.0000     0.0000     0.0000     0.0000     0.0000     0.0000     0.0000 </r>
        <r>   -11.0904     0.0000     0.0000     0.0000     0.0000     0.0000     0.0000     0.0000     0.0000     0.0000 </r>
        <r>   -10.9408     0.0000     0.0000     0.0000     0.0000     0.0000     0.0000     0.0000     0.0000     0.0000 </r>
        <r>   -10.7913     0.0000     0.0000     0.0000     0.0000     0.0000     0.0000     0.0000     0.0000     0.0000 </r>
        <r>   -10.6417     0.0000     0.0000     0.0000     0.0000     0.0000     0.0000     0.0000     0.0000     0.0000 </r>
        <r>   -10.4921     0.0000     0.0000     0.0000     0.0000     0.0000     0.0000     0.0000     0.0000     0.0000 </r>
        <r>   -10.3425     0.0000     0.0000     0.0000     0.0000     0.0000     0.0000     0.0000     0.0000     0.0000 </r>
        <r>   -10.1930     0.0000     0.0000     0.0000     0.0000     0.0000     0.0000     0.0000     0.0000     0.0000 </r>
        <r>   -10.0434     0.0000     0.0000     0.0000     0.0000     0.0000     0.0000     0.0000     0.0000     0.0000 </r>
        <r>    -9.8938     0.0000     0.0000     0.0000     0.0000     0.0000     0.0000     0.0000     0.0000     0.0000 </r>
        <r>    -9.7442     0.0000     0.0000     0.0000     0.0000     0.0000     0.0000     0.0000     0.0000     0.0000 </r>
        <r>    -9.5947     0.0000     0.0000     0.0000     0.0000     0.0000     0.0000     0.0000     0.0000     0.0000 </r>
        <r>    -9.4451     0.0000     0.0000     0.0000     0.0000     0.0000     0.0000     0.0000     0.0000     0.0000 </r>
        <r>    -9.2955     0.0000     0.0000     0.0000     0.0000     0.0000     0.0000     0.0000     0.0000     0.0000 </r>
        <r>    -9.1459     0.0000     0.0000     0.0000     0.0000     0.0000     0.0000     0.0000     0.0000     0.0000 </r>
        <r>    -8.9964     0.0000     0.0000     0.0000     0.0000     0.0000     0.0000     0.0000     0.0000     0.0000 </r>
        <r>    -8.8468     0.0000     0.0000     0.0000     0.0000     0.0000     0.0000     0.0000     0.0000     0.0000 </r>
        <r>    -8.6972     0.0000     0.0000     0.0000     0.0000     0.0000     0.0000     0.0000     0.0000     0.0000 </r>
        <r>    -8.5476     0.0000     0.0000     0.0000     0.0000     0.0000     0.0000     0.0000     0.0000     0.0000 </r>
        <r>    -8.3981     0.0000     0.0000     0.0000     0.0000     0.0000     0.0000     0.0000     0.0000     0.0000 </r>
        <r>    -8.2485     0.0000     0.0000     0.0000     0.0000     0.0000     0.0000     0.0000     0.0000     0.0000 </r>
        <r>    -8.0989     0.0000     0.0000     0.0000     0.0000     0.0000     0.0000     0.0000     0.0000     0.0000 </r>
        <r>    -7.9493     0.0000     0.0000     0.0000     0.0000     0.0000     0.0000     0.0000     0.0000     0.0000 </r>
        <r>    -7.7998     0.0000     0.0000     0.0000     0.0000     0.0000     0.0000     0.0000     0.0000     0.0000 </r>
        <r>    -7.6502     0.0000     0.0000     0.0000     0.0000     0.0000     0.0000     0.0000     0.0000     0.0000 </r>
        <r>    -7.5006     0.0000     0.0000     0.0000     0.0000     0.0000     0.0000     0.0000     0.0000     0.0000 </r>
        <r>    -7.3510     0.0000     0.0000     0.0000     0.0000     0.0000     0.0000     0.0000     0.0000     0.0000 </r>
        <r>    -7.2015     0.0000     0.0000     0.0000     0.0000     0.0000     0.0000     0.0000     0.0000     0.0000 </r>
        <r>    -7.0519     0.0000     0.0000     0.0000     0.0000     0.0000     0.0000     0.0000     0.0000     0.0000 </r>
        <r>    -6.9023     0.0000     0.0000     0.0000     0.0000     0.0000     0.0000     0.0000     0.0000     0.0000 </r>
        <r>    -6.7527     0.0000     0.0000     0.0000     0.0000     0.0000     0.0000     0.0000     0.0000     0.0000 </r>
        <r>    -6.6032     0.0000     0.0000     0.0000     0.0000     0.0000     0.0000     0.0000     0.0000     0.0000 </r>
        <r>    -6.4536     0.0000     0.0000     0.0000     0.0000     0.0000     0.0000     0.0000     0.0000     0.0000 </r>
        <r>    -6.3040     0.0000     0.0000     0.0000     0.0000     0.0000     0.0000     0.0000     0.0000     0.0000 </r>
        <r>    -6.1544     0.0000     0.0000     0.0000     0.0000     0.0000     0.0000     0.0000     0.0000     0.0000 </r>
        <r>    -6.0049     0.0000     0.0000     0.0000     0.0000     0.0000     0.0000     0.0000     0.0000     0.0000 </r>
        <r>    -5.8553     0.0000     0.0000     0.0000     0.0000     0.0000     0.0000     0.0000     0.0000     0.0000 </r>
        <r>    -5.7057     0.0000     0.0000     0.0000     0.0000     0.0000     0.0000     0.0000     0.0000     0.0000 </r>
        <r>    -5.5561     0.0000     0.0000     0.0000     0.0000     0.0000     0.0000     0.0000     0.0000     0.0000 </r>
        <r>    -5.4066     0.0000     0.0000     0.0000     0.0000     0.0000     0.0000     0.0000     0.0000     0.0000 </r>
        <r>    -5.2570     0.0000     0.0000     0.0000     0.0000     0.0000     0.0000     0.0000     0.0000     0.0000 </r>
        <r>    -5.1074     0.0000     0.0000     0.0000     0.0000     0.0000     0.0000     0.0000     0.0000     0.0000 </r>
        <r>    -4.9578     0.0000     0.0000     0.0000     0.0000     0.0000     0.0000     0.0000     0.0000     0.0000 </r>
        <r>    -4.8083     0.0000     0.0000     0.0000     0.0000     0.0000     0.0000     0.0000     0.0000     0.0000 </r>
        <r>    -4.6587     0.0000     0.0000     0.0000     0.0000     0.0000     0.0000     0.0000     0.0000     0.0000 </r>
        <r>    -4.5091     0.0000     0.0000     0.0000     0.0000     0.0000     0.0000     0.0000     0.0000     0.0000 </r>
        <r>    -4.3595     0.0000     0.0000     0.0000     0.0000     0.0000     0.0000     0.0000     0.0000     0.0000 </r>
        <r>    -4.2100     0.0000     0.0000     0.0000     0.0000     0.0000     0.0000     0.0000     0.0000     0.0000 </r>
        <r>    -4.0604     0.0000     0.0000     0.0000     0.0000     0.0000     0.0000     0.0000     0.0000     0.0000 </r>
        <r>    -3.9108     0.0000     0.0000     0.0000     0.0000     0.0000     0.0000     0.0000     0.0000     0.0000 </r>
        <r>    -3.7612     0.0000     0.0000     0.0000     0.0000     0.0000     0.0000     0.0000     0.0000     0.0000 </r>
        <r>    -3.6117     0.0000     0.0000     0.0000     0.0000     0.0000     0.0000     0.0000     0.0000     0.0000 </r>
        <r>    -3.4621     0.0000     0.0000     0.0000     0.0000     0.0000     0.0000     0.0000     0.0000     0.0000 </r>
        <r>    -3.3125     0.0000     0.0000     0.0000     0.0000     0.0000     0.0000     0.0000     0.0000     0.0000 </r>
        <r>    -3.1629     0.0000     0.0000     0.0000     0.0000     0.0000     0.0000     0.0000     0.0000     0.0000 </r>
        <r>    -3.0134     0.0000     0.0000     0.0000     0.0000     0.0000     0.0000     0.0000     0.0000     0.0000 </r>
        <r>    -2.8638     0.0000     0.0000     0.0000     0.0000     0.0000     0.0000     0.0000     0.0000     0.0000 </r>
        <r>    -2.7142     0.0000     0.0000     0.0000     0.0000     0.0000     0.0000     0.0000     0.0000     0.0000 </r>
        <r>    -2.5646     0.0000     0.0000     0.0000     0.0000     0.0000     0.0000     0.0000     0.0000     0.0000 </r>
        <r>    -2.4150     0.0000     0.0000     0.0000     0.0000     0.0000     0.0000     0.0000     0.0000     0.0000 </r>
        <r>    -2.2655     0.1058     0.0000     0.0000     0.0000     0.0403     0.0000     0.0340     0.0000     0.0617 </r>
        <r>    -2.1159     0.5291     0.0000     0.0000     0.0000     0.2015     0.0000     0.1700     0.0000     0.3086 </r>
        <r>    -1.9663     0.0004     0.0000     0.0000     0.0000     0.0001     0.0000     0.0001     0.0000     0.0002 </r>
        <r>    -1.8167     0.0000     0.0000     0.0000     0.0000     0.0000     0.0000     0.0000     0.0000     0.0000 </r>
        <r>    -1.6672     0.0000     0.0000     0.0000     0.0000     0.0000     0.0000     0.0000     0.0000     0.0000 </r>
        <r>    -1.5176     0.0000     0.0000     0.0000     0.0000     0.0000     0.0000     0.0000     0.0000     0.0000 </r>
        <r>    -1.3680     0.0000     0.0804     0.0000     0.1608     0.2547     0.4670     0.2503     0.0397     0.0013 </r>
        <r>    -1.2184     0.0000     0.0265     0.0000     0.0530     0.7698     1.4099     0.7563     0.1199     0.0040 </r>
        <r>    -1.0689     0.0000     0.0000     0.0000     0.0000     0.0002     0.0004     0.0002     0.0000     0.0000 </r>
        <r>    -0.9193     0.0000     0.0000     0.0000     0.0000     0.0000     0.0000     0.0000     0.0000     0.0000 </r>
        <r>    -0.7697     0.0000     0.0000     0.0000     0.0000     0.0000     0.0000     0.0000     0.0000     0.0000 </r>
        <r>    -0.6201     0.0000     0.0000     0.0000     0.0000     0.0000     0.0000     0.0000     0.0000     0.0000 </r>
        <r>    -0.4706     0.0000     0.0488     0.0733     0.0244     0.0000     0.0000     0.0000     0.0000     0.0000 </r>
        <r>    -0.3210     0.0000     0.0488     0.0731     0.0244     0.0000     0.0000     0.0000     0.0000     0.0000 </r>
        <r>    -0.1714     0.0000     0.0009     0.0009     0.0009     0.0000     0.0000     0.0000     0.0000     0.0000 </r>
        <r>    -0.0218     0.0000     0.0171     0.0171     0.0171     0.0000     0.0000     0.0000     0.0000     0.0000 </r>
        <r>     0.1277     0.0000     0.0001     0.0001     0.0001     0.0000     0.0000     0.0000     0.0000     0.0000 </r>
        <r>     0.2773     0.0000     0.0000     0.0000     0.0000     0.0000     0.0000     0.0000     0.0000     0.0000 </r>
        <r>     0.4269     0.0000     0.0000     0.0000     0.0000     0.0000     0.0000     0.0000     0.0000     0.0000 </r>
        <r>     0.5765     0.0000     0.0000     0.0000     0.0000     0.2517     0.0000     0.8493     0.0000     0.0315 </r>
        <r>     0.7260     0.0000     0.0000     0.0000     0.0000     0.7160     0.0000     2.4162     0.0000     0.0895 </r>
        <r>     0.8756     0.0000     0.0000     0.0000     0.0000     0.0002     0.0000     0.0005     0.0000     0.0000 </r>
        <r>     1.0252     0.0000     0.0000     0.0000     0.0000     0.0000     0.0000     0.0001     0.0001     0.0001 </r>
        <r>     1.1748     0.0000     0.0000     0.0000     0.0000     0.3359     0.3359     0.7557     0.6718     0.9237 </r>
        <r>     1.3243     0.0000     0.0000     0.0000     0.0000     0.1782     0.1781     0.4008     0.3563     0.4899 </r>
        <r>     1.4739     0.0031     0.0000     0.0000     0.0000     0.6506     0.2383     0.2440     0.1192     0.0813 </r>
        <r>     1.6235     0.0198     0.0000     0.0000     0.0000     3.4667     0.8196     1.3050     0.4207     0.4409 </r>
        <r>     1.7731     0.0005     0.0000     0.0000     0.0000     0.6629     1.8387     2.1768     5.1384     3.0463 </r>
        <r>     1.9226     0.0352     0.0000     0.0000     0.0000     1.7019     2.9220     1.4676     2.4108     3.6206 </r>
        <r>     2.0722     0.0007     0.0000     0.0000     0.0000     0.4447     1.2386     0.0271     2.4762     3.3502 </r>
        <r>     2.2218     0.0000     0.0000     0.0000     0.0000     0.0001     0.0004     0.0000     0.0007     0.0009 </r>
        <r>     2.3714     0.0000     0.0000     0.0000     0.0000     0.0000     0.0000     0.0000     0.0000     0.0000 </r>
        <r>     2.5209     0.0000     0.0000     0.0000     0.0000     0.0000     0.0000     0.0000     0.0000     0.0000 </r>
        <r>     2.6705     0.1085     0.0000     0.0000     0.0000     0.0000     0.0000     0.0000     0.0000     0.0000 </r>
        <r>     2.8201     0.5881     0.0000     0.0000     0.0000     0.0000     0.0000     0.0000     0.0000     0.0000 </r>
        <r>     2.9697     0.0004     0.0000     0.0000     0.0000     0.0029     0.0034     0.0014     0.0012     0.0002 </r>
        <r>     3.1192     0.0000     0.0000     0.0000     0.0000     2.5106     2.9375     1.2297     1.0122     0.2091 </r>
        <r>     3.2688     0.0000     0.0000     0.0000     0.0000     0.3635     0.4250     0.1780     0.1464     0.0303 </r>
        <r>     3.4184     0.0000     0.0000     0.0000     0.0000     0.0000     0.0000     0.0000     0.0000     0.0000 </r>
        <r>     3.5680     0.0000     0.0000     0.0000     0.0000     0.0000     0.0000     0.0000     0.0000     0.0000 </r>
        <r>     3.7175     0.0000     0.0000     0.0000     0.0000     0.0000     0.0000     0.0000     0.0000     0.0000 </r>
        <r>     3.8671     0.0000     0.0000     0.0000     0.0000     0.0000     0.0000     0.0000     0.0000     0.0000 </r>
        <r>     4.0167     0.0000     0.0000     0.0000     0.0000     0.0000     0.0000     0.0000     0.0000     0.0000 </r>
        <r>     4.1663     0.0000     0.0000     0.0000     0.0000     0.0000     0.0000     0.0000     0.0000     0.0000 </r>
        <r>     4.3158     0.0000     0.0000     0.0000     0.0000     0.0000     0.0000     0.0000     0.0000     0.0000 </r>
        <r>     4.4654     0.0000     0.0000     0.0000     0.0000     0.0000     0.0000     0.0000     0.0000     0.0000 </r>
        <r>     4.6150     0.0000     0.0000     0.0000     0.0000     0.0000     0.0000     0.0000     0.0000     0.0000 </r>
        <r>     4.7646     0.0000     0.0000     0.0000     0.0000     0.0000     0.0000     0.0000     0.0000     0.0000 </r>
        <r>     4.9141     0.0000     0.0000     0.0000     0.0000     0.0000     0.0000     0.0000     0.0000     0.0000 </r>
        <r>     5.0637     0.0000     0.0000     0.0000     0.0000     0.0000     0.0000     0.0000     0.0000     0.0000 </r>
        <r>     5.2133     0.0000     0.0000     0.0000     0.0000     0.0000     0.0000     0.0000     0.0000     0.0000 </r>
        <r>     5.3629     0.0000     0.0000     0.0000     0.0000     0.0000     0.0000     0.0000     0.0000     0.0000 </r>
        <r>     5.5124     0.0000     0.0000     0.0000     0.0000     0.0000     0.0000     0.0000     0.0000     0.0000 </r>
        <r>     5.6620     0.0000     0.0000     0.0000     0.0000     0.0000     0.0000     0.0000     0.0000     0.0000 </r>
        <r>     5.8116     0.0000     0.0000     0.0000     0.0000     0.0000     0.0000     0.0000     0.0000     0.0000 </r>
        <r>     5.9612     0.0000     0.0000     0.0000     0.0000     0.0000     0.0000     0.0000     0.0000     0.0000 </r>
        <r>     6.1107     0.0000     0.0000     0.0000     0.0000     0.0000     0.0000     0.0000     0.0000     0.0000 </r>
        <r>     6.2603     0.0000     0.0000     0.0000     0.0000     0.0000     0.0000     0.0000     0.0000     0.0000 </r>
        <r>     6.4099     0.0000     0.0000     0.0000     0.0000     0.0000     0.0000     0.0000     0.0000     0.0000 </r>
        <r>     6.5595     0.0000     0.0000     0.0000     0.0000     0.0000     0.0000     0.0000     0.0000     0.0000 </r>
        <r>     6.7090     0.0000     0.0000     0.0000     0.0000     0.0000     0.0000     0.0000     0.0000     0.0000 </r>
        <r>     6.8586     0.0000     0.0000     0.0000     0.0000     0.0000     0.0000     0.0000     0.0000     0.0000 </r>
        <r>     7.0082     0.0000     0.0000     0.0000     0.0000     0.0000     0.0000     0.0000     0.0000     0.0000 </r>
        <r>     7.1578     0.0000     0.0000     0.0000     0.0000     0.0000     0.0000     0.0000     0.0000     0.0000 </r>
        <r>     7.3073     0.0000     0.0000     0.0000     0.0000     0.0000     0.0000     0.0000     0.0000     0.0000 </r>
        <r>     7.4569     0.0000     0.0000     0.0000     0.0000     0.0000     0.0000     0.0000     0.0000     0.0000 </r>
        <r>     7.6065     0.0000     0.0000     0.0000     0.0000     0.0000     0.0000     0.0000     0.0000     0.0000 </r>
        <r>     7.7561     0.0000     0.0000     0.0000     0.0000     0.0000     0.0000     0.0000     0.0000     0.0000 </r>
        <r>     7.9056     0.0000     0.0000     0.0000     0.0000     0.0000     0.0000     0.0000     0.0000     0.0000 </r>
        <r>     8.0552     0.0000     0.0026     0.0000     0.0209     0.0000     0.0000     0.0000     0.0000     0.0000 </r>
        <r>     8.2048     0.0000     0.2169     0.0000     1.7351     0.0000     0.0000     0.0000     0.0000     0.0000 </r>
        <r>     8.3544     0.0000     0.0056     0.0000     0.0450     0.0000     0.0000     0.0000     0.0000     0.0000 </r>
        <r>     8.5039     0.0003     0.0000     0.0000     0.0000     0.0000     0.0000     0.0000     0.0000     0.0000 </r>
        <r>     8.6535     2.1620     0.0000     0.0000     0.0000     0.0654     0.0000     0.0245     0.0000     0.0082 </r>
        <r>     8.8031     0.9596     0.0000     0.0000     0.0000     0.0290     0.0000     0.0109     0.0000     0.0036 </r>
        <r>     8.9527     0.0000     0.0000     0.0000     0.0000     0.0000     0.0000     0.0000     0.0000     0.0000 </r>
        <r>     9.1022     0.0001     0.0000     0.0000     0.0000     0.0000     0.0000     0.0000     0.0000     0.0000 </r>
        <r>     9.2518     1.6877     0.0000     0.0000     0.0000     0.0561     0.0000     0.0473     0.0000     0.0859 </r>
        <r>     9.4014     1.1252     0.0000     0.0000     0.0000     0.0374     0.0000     0.0315     0.0000     0.0572 </r>
        <r>     9.5510     0.0000     0.0000     0.0000     0.0000     0.0000     0.0000     0.0000     0.0000     0.0000 </r>
        <r>     9.7005     0.0000     0.0000     0.0000     0.0000     0.0000     0.0000     0.0000     0.0000     0.0000 </r>
        <r>     9.8501     0.0000     0.0000     0.0000     0.0000     0.0000     0.0000     0.0000     0.0000     0.0000 </r>
        <r>     9.9997     0.0000     0.0000     0.0000     0.0000     0.0000     0.0000     0.0000     0.0000     0.0000 </r>
        <r>    10.1493     0.0000     0.0000     0.0000     0.0000     0.0000     0.0000     0.0000     0.0000     0.0000 </r>
        <r>    10.2988     0.0000     0.0054     0.0000     0.0108     0.0000     0.0000     0.0000     0.0000     0.0000 </r>
        <r>    10.4484     0.0000     0.3883     0.0000     0.7766     0.0000     0.0000     0.0000     0.0000     0.0000 </r>
        <r>    10.5980     0.0000     0.0088     0.0000     0.0177     0.0000     0.0000     0.0000     0.0000     0.0000 </r>
        <r>    10.7476     0.0000     0.0000     0.0000     0.0000     0.0000     0.0000     0.0000     0.0000     0.0000 </r>
        <r>    10.8971     0.0000     0.0000     0.0000     0.0000     0.0000     0.0000     0.0000     0.0000     0.0000 </r>
        <r>    11.0467     0.0000     0.0000     0.0000     0.0000     0.0000     0.0000     0.0000     0.0000     0.0000 </r>
        <r>    11.1963     0.0000     0.0000     0.0000     0.0000     0.0000     0.0000     0.0000     0.0000     0.0000 </r>
        <r>    11.3459     0.0000     0.0000     0.0000     0.0000     0.0000     0.0000     0.0000     0.0000     0.0000 </r>
        <r>    11.4955     0.0000     0.0000     0.0000     0.0000     0.0000     0.0000     0.0000     0.0000     0.0000 </r>
        <r>    11.6450     0.0000     0.0000     0.0000     0.0000     0.0000     0.0000     0.0000     0.0000     0.0000 </r>
        <r>    11.7946     0.0000     0.0000     0.0000     0.0000     0.0000     0.0000     0.0000     0.0000     0.0000 </r>
        <r>    11.9442     0.0000     0.0000     0.0000     0.0000     0.0000     0.0000     0.0000     0.0000     0.0000 </r>
        <r>    12.0938     0.0000     0.0000     0.0000     0.0000     0.0000     0.0000     0.0000     0.0000     0.0000 </r>
        <r>    12.2433     0.0000     0.0000     0.0000     0.0000     0.0000     0.0000     0.0000     0.0000     0.0000 </r>
        <r>    12.3929     0.0000     0.0000     0.0000     0.0000     0.0000     0.0000     0.0000     0.0000     0.0000 </r>
        <r>    12.5425     0.0000     0.0000     0.0000     0.0000     0.0000     0.0000     0.0000     0.0000     0.0000 </r>
        <r>    12.6921     0.0000     0.0000     0.0000     0.0000     0.0000     0.0000     0.0000     0.0000     0.0000 </r>
        <r>    12.8416     0.0000     0.0000     0.0000     0.0000     0.0000     0.0000     0.0000     0.0000     0.0000 </r>
        <r>    12.9912     0.0000     0.0000     0.0000     0.0000     0.0000     0.0000     0.0000     0.0000     0.0000 </r>
        <r>    13.1408     0.0000     0.0000     0.0000     0.0000     0.0000     0.0000     0.0000     0.0000     0.0000 </r>
        <r>    13.2904     0.0000     0.0000     0.0000     0.0000     0.0000     0.0000     0.0000     0.0000     0.0000 </r>
        <r>    13.4399     0.0000     0.0000     0.0000     0.0000     0.0000     0.0000     0.0000     0.0000     0.0000 </r>
        <r>    13.5895     0.0000     0.0000     0.0000     0.0000     0.0000     0.0000     0.0000     0.0000     0.0000 </r>
        <r>    13.7391     0.0000     0.0000     0.0000     0.0000     0.0000     0.0000     0.0000     0.0000     0.0000 </r>
        <r>    13.8887     0.0000     0.0000     0.0000     0.0000     0.0000     0.0000     0.0000     0.0000     0.0000 </r>
        <r>    14.0382     0.0000     0.0000     0.0000     0.0000     0.0000     0.0000     0.0000     0.0000     0.0000 </r>
        <r>    14.1878     0.0000     0.0000     0.0000     0.0000     0.0000     0.0000     0.0000     0.0000     0.0000 </r>
        <r>    14.3374     0.0000     0.0000     0.0000     0.0000     0.0000     0.0000     0.0000     0.0000     0.0000 </r>
        <r>    14.4870     0.0000     0.0000     0.0000     0.0000     0.0000     0.0000     0.0000     0.0000     0.0000 </r>
        <r>    14.6365     0.0000     0.0000     0.0000     0.0000     0.0000     0.0000     0.0000     0.0000     0.0000 </r>
        <r>    14.7861     0.0000     0.0000     0.0000     0.0000     0.0000     0.0000     0.0000     0.0000     0.0000 </r>
        <r>    14.9357     0.0000     0.0000     0.0000     0.0000     0.0000     0.0000     0.0000     0.0000     0.0000 </r>
        <r>    15.0853     0.0000     0.0000     0.0000     0.0000     0.0000     0.0000     0.0000     0.0000     0.0000 </r>
        <r>    15.2348     0.0000     0.0000     0.0000     0.0000     0.0000     0.0000     0.0000     0.0000     0.0000 </r>
        <r>    15.3844     0.0000     0.0000     0.0000     0.0000     0.0000     0.0000     0.0000     0.0000     0.0000 </r>
        <r>    15.5340     0.0000     0.0000     0.0000     0.0000     0.0000     0.0000     0.0000     0.0000     0.0000 </r>
        <r>    15.6836     0.0000     0.0000     0.0000     0.0000     0.0000     0.0000     0.0000     0.0000     0.0000 </r>
        <r>    15.8331     0.0000     0.0432     0.0650     0.0216     0.0000     0.0000     0.0000     0.0000     0.0000 </r>
        <r>    15.9827     0.0000     1.3170     1.9754     0.6585     0.0001     0.0000     0.0002     0.0000     0.0000 </r>
        <r>    16.1323     0.0000     0.0122     0.0182     0.0061     0.2573     0.0000     0.8686     0.0000     0.0322 </r>
        <r>    16.2819     0.0000     0.2476     0.2777     0.0309     0.0920     0.0000     0.3106     0.0000     0.0115 </r>
        <r>    16.4314     0.0000     2.4907     2.8028     0.3114     0.0000     0.0000     0.0000     0.0000     0.0000 </r>
        <r>    16.5810     0.0000     0.0053     0.0060     0.0007     0.0000     0.0000     0.0000     0.0000     0.0000 </r>
        <r>    16.7306     0.0000     0.0000     0.0000     0.0000     0.0000     0.0000     0.0000     0.0000     0.0000 </r>
        <r>    16.8802     0.0000     0.0000     0.0000     0.0000     0.0000     0.0000     0.0000     0.0000     0.0000 </r>
        <r>    17.0297     0.0000     0.0000     0.0000     0.0000     0.0000     0.0000     0.0000     0.0000     0.0000 </r>
        <r>    17.1793     0.0000     0.0000     0.0000     0.0000     0.0000     0.0000     0.0000     0.0000     0.0000 </r>
        <r>    17.3289     0.0000     0.0000     0.0000     0.0000     0.0000     0.0000     0.0000     0.0000     0.0000 </r>
        <r>    17.4785     0.0000     0.0000     0.0000     0.0000     0.0000     0.0000     0.0000     0.0000     0.0000 </r>
        <r>    17.6280     0.0000     0.0000     0.0000     0.0000     0.0000     0.0000     0.0000     0.0000     0.0000 </r>
        <r>    17.7776     0.0000     0.0000     0.0000     0.0000     0.0000     0.0000     0.0000     0.0000     0.0000 </r>
        <r>    17.9272     0.0000     0.0000     0.0000     0.0000     0.0000     0.0000     0.0000     0.0000     0.0000 </r>
        <r>    18.0768     0.0000     0.0000     0.0000     0.0000     0.0000     0.0000     0.0000     0.0000     0.0000 </r>
        <r>    18.2263     0.0000     0.0000     0.0000     0.0000     0.0000     0.0000     0.0000     0.0000     0.0000 </r>
        <r>    18.3759     0.0000     0.0000     0.0000     0.0000     0.0000     0.0000     0.0000     0.0000     0.0000 </r>
        <r>    18.5255     0.0000     0.0000     0.0000     0.0000     0.0000     0.0000     0.0000     0.0000     0.0000 </r>
        <r>    18.6751     0.0000     0.0000     0.0000     0.0000     0.0000     0.0000     0.0000     0.0000     0.0000 </r>
        <r>    18.8246     0.0000     0.0000     0.0000     0.0000     0.0000     0.0000     0.0000     0.0000     0.0000 </r>
        <r>    18.9742     0.0000     0.0000     0.0000     0.0000     0.0000     0.0000     0.0000     0.0000     0.0000 </r>
        <r>    19.1238     0.0000     0.0000     0.0000     0.0000     0.0000     0.0000     0.0000     0.0000     0.0000 </r>
        <r>    19.2734     0.0000     0.0000     0.0000     0.0000     0.0000     0.0000     0.0000     0.0000     0.0000 </r>
        <r>    19.4229     0.0000     0.0000     0.0000     0.0000     0.0000     0.0000     0.0000     0.0000     0.0000 </r>
        <r>    19.5725     0.0000     0.0000     0.0000     0.0000     0.0000     0.0000     0.0000     0.0000     0.0000 </r>
        <r>    19.7221     0.0000     0.0000     0.0000     0.0000     0.0000     0.0000     0.0000     0.0000     0.0000 </r>
        <r>    19.8717     0.0000     0.0000     0.0000     0.0000     0.0000     0.0000     0.0000     0.0000     0.0000 </r>
        <r>    20.0212     0.0000     0.0000     0.0000     0.0000     0.0000     0.0000     0.0000     0.0000     0.0000 </r>
        <r>    20.1708     0.0000     0.0000     0.0000     0.0000     0.0000     0.0000     0.0000     0.0000     0.0000 </r>
        <r>    20.3204     0.0000     0.0000     0.0000     0.0000     0.0000     0.0000     0.0000     0.0000     0.0000 </r>
        <r>    20.4700     0.0000     0.0000     0.0000     0.0000     0.0000     0.0000     0.0000     0.0000     0.0000 </r>
        <r>    20.6195     0.0000     0.0000     0.0000     0.0000     0.0000     0.0000     0.0000     0.0000     0.0000 </r>
        <r>    20.7691     0.0000     0.0000     0.0000     0.0000     0.0000     0.0000     0.0000     0.0000     0.0000 </r>
        <r>    20.9187     0.0000     0.0000     0.0000     0.0000     0.0000     0.0000     0.0000     0.0000     0.0000 </r>
        <r>    21.0683     0.0000     0.0000     0.0000     0.0000     0.0000     0.0000     0.0000     0.0000     0.0000 </r>
        <r>    21.2178     0.0000     0.0000     0.0000     0.0000     0.0000     0.0000     0.0000     0.0000     0.0000 </r>
        <r>    21.3674     0.0000     0.0000     0.0000     0.0000     0.0095     0.0095     0.0214     0.0190     0.0261 </r>
        <r>    21.5170     0.0000     0.0001     0.0000     0.0001     0.1767     0.1767     0.3976     0.3535     0.4859 </r>
        <r>    21.6666     0.0814     0.0000     0.0000     0.0000     0.0264     0.0009     0.0235     0.0018     0.0415 </r>
        <r>    21.8161     1.2279     0.0000     0.0000     0.0000     0.3843     0.0000     0.3240     0.0000     0.5885 </r>
        <r>    21.9657     0.0047     0.0000     0.0000     0.0000     0.0015     0.0000     0.0012     0.0000     0.0022 </r>
        <r>    22.1153     0.0000     0.0000     0.0000     0.0000     0.0000     0.0000     0.0000     0.0000     0.0000 </r>
        <r>    22.2649     0.0000     0.0000     0.0000     0.0000     0.0000     0.0000     0.0000     0.0000     0.0000 </r>
        <r>    22.4144     0.0000     0.0000     0.0000     0.0000     0.0000     0.0000     0.0000     0.0000     0.0000 </r>
        <r>    22.5640     0.0000     0.0000     0.0000     0.0000     0.0000     0.0000     0.0000     0.0000     0.0000 </r>
        <r>    22.7136     0.0000     0.0000     0.0000     0.0000     0.0000     0.0000     0.0000     0.0000     0.0000 </r>
        <r>    22.8632     0.0000     0.0000     0.0000     0.0000     0.0000     0.0000     0.0000     0.0000     0.0000 </r>
        <r>    23.0127     0.0000     0.0000     0.0000     0.0000     0.0000     0.0000     0.0000     0.0000     0.0000 </r>
        <r>    23.1623     0.0000     0.0000     0.0000     0.0000     0.0000     0.0000     0.0000     0.0000     0.0000 </r>
        <r>    23.3119     0.0000     0.0000     0.0000     0.0000     0.0000     0.0000     0.0000     0.0000     0.0000 </r>
        <r>    23.4615     0.0000     0.0000     0.0000     0.0000     0.0000     0.0000     0.0000     0.0000     0.0000 </r>
        <r>    23.6110     0.0000     0.0000     0.0000     0.0000     0.0000     0.0000     0.0000     0.0000     0.0000 </r>
        <r>    23.7606     0.0000     0.0000     0.0000     0.0000     0.0000     0.0000     0.0000     0.0000     0.0000 </r>
       </set>
      </set>
      <set comment="ion 2">
       <set comment="spin 1">
        <r>   -21.1120     0.0000     0.0000     0.0000     0.0000     0.0000     0.0000     0.0000     0.0000     0.0000 </r>
        <r>   -20.9624     0.0000     0.0000     0.0000     0.0000     0.0000     0.0000     0.0000     0.0000     0.0000 </r>
        <r>   -20.8128     0.0000     0.0000     0.0000     0.0000     0.0000     0.0000     0.0000     0.0000     0.0000 </r>
        <r>   -20.6632     0.0000     0.0000     0.0000     0.0000     0.0000     0.0000     0.0000     0.0000     0.0000 </r>
        <r>   -20.5137     0.0000     0.0000     0.0000     0.0000     0.0000     0.0000     0.0000     0.0000     0.0000 </r>
        <r>   -20.3641     0.0000     0.0000     0.0000     0.0000     0.0000     0.0000     0.0000     0.0000     0.0000 </r>
        <r>   -20.2145     0.0000     0.0000     0.0000     0.0000     0.0000     0.0000     0.0000     0.0000     0.0000 </r>
        <r>   -20.0649     0.0000     0.0000     0.0000     0.0000     0.0000     0.0000     0.0000     0.0000     0.0000 </r>
        <r>   -19.9154     0.0000     0.0000     0.0000     0.0000     0.0000     0.0000     0.0000     0.0000     0.0000 </r>
        <r>   -19.7658     0.0000     0.0000     0.0000     0.0000     0.0000     0.0000     0.0000     0.0000     0.0000 </r>
        <r>   -19.6162     0.0000     0.0000     0.0000     0.0000     0.0000     0.0000     0.0000     0.0000     0.0000 </r>
        <r>   -19.4666     0.0000     0.0000     0.0000     0.0000     0.0000     0.0000     0.0000     0.0000     0.0000 </r>
        <r>   -19.3171     0.0000     0.0000     0.0000     0.0000     0.0000     0.0000     0.0000     0.0000     0.0000 </r>
        <r>   -19.1675     0.0054     0.0000     0.0000     0.0000     0.0000     0.0000     0.0000     0.0000     0.0000 </r>
        <r>   -19.0179     1.4448     0.0000     0.0000     0.0000     0.0000     0.0000     0.0000     0.0000     0.0000 </r>
        <r>   -18.8683     9.6799     0.0000     0.0000     0.0000     0.0000     0.0000     0.0000     0.0000     0.0000 </r>
        <r>   -18.7188     1.3338     0.0000     0.0000     0.0000     0.0000     0.0000     0.0000     0.0000     0.0000 </r>
[...]
        <r>    15.5340     0.0000     0.0000     0.0000     0.0000     0.0000     0.0000     0.0000     0.0000     0.0000 </r>
        <r>    15.6836     0.0000     0.0000     0.0000     0.0000     0.0000     0.0000     0.0000     0.0000     0.0000 </r>
        <r>    15.8331     0.0000     0.0155     0.0234     0.0078     0.0000     0.0000     0.0000     0.0000     0.0000 </r>
        <r>    15.9827     0.0000     0.4740     0.7110     0.2370     0.0000     0.0000     0.0000     0.0000     0.0000 </r>
        <r>    16.1323     0.0000     0.0044     0.0066     0.0022     0.0000     0.0000     0.0000     0.0000     0.0000 </r>
        <r>    16.2819     0.0000     0.0000     0.0000     0.0000     0.0000     0.0000     0.0000     0.0000     0.0000 </r>
        <r>    16.4314     0.0000     0.0000     0.0000     0.0000     0.0000     0.0000     0.0000     0.0000     0.0000 </r>
        <r>    16.5810     0.0000     0.0000     0.0000     0.0000     0.0000     0.0000     0.0000     0.0000     0.0000 </r>
        <r>    16.7306     0.0000     0.0000     0.0000     0.0000     0.0000     0.0000     0.0000     0.0000     0.0000 </r>
        <r>    16.8802     0.0000     0.0000     0.0000     0.0000     0.0000     0.0000     0.0000     0.0000     0.0000 </r>
        <r>    17.0297     0.0000     0.0000     0.0000     0.0000     0.0000     0.0000     0.0000     0.0000     0.0000 </r>
        <r>    17.1793     0.0000     0.0000     0.0000     0.0000     0.0000     0.0000     0.0000     0.0000     0.0000 </r>
        <r>    17.3289     0.0000     0.0000     0.0000     0.0000     0.0000     0.0000     0.0000     0.0000     0.0000 </r>
        <r>    17.4785     0.0000     0.0000     0.0000     0.0000     0.0000     0.0000     0.0000     0.0000     0.0000 </r>
        <r>    17.6280     0.0000     0.0000     0.0000     0.0000     0.0000     0.0000     0.0000     0.0000     0.0000 </r>
        <r>    17.7776     0.0000     0.0000     0.0000     0.0000     0.0000     0.0000     0.0000     0.0000     0.0000 </r>
        <r>    17.9272     0.0000     0.0000     0.0000     0.0000     0.0000     0.0000     0.0000     0.0000     0.0000 </r>
        <r>    18.0768     0.0000     0.0000     0.0000     0.0000     0.0000     0.0000     0.0000     0.0000     0.0000 </r>
        <r>    18.2263     0.0000     0.0000     0.0000     0.0000     0.0000     0.0000     0.0000     0.0000     0.0000 </r>
        <r>    18.3759     0.0000     0.0000     0.0000     0.0000     0.0000     0.0000     0.0000     0.0000     0.0000 </r>
        <r>    18.5255     0.0000     0.0000     0.0000     0.0000     0.0000     0.0000     0.0000     0.0000     0.0000 </r>
        <r>    18.6751     0.0000     0.0000     0.0000     0.0000     0.0000     0.0000     0.0000     0.0000     0.0000 </r>
        <r>    18.8246     0.0000     0.0000     0.0000     0.0000     0.0000     0.0000     0.0000     0.0000     0.0000 </r>
        <r>    18.9742     0.0000     0.0000     0.0000     0.0000     0.0000     0.0000     0.0000     0.0000     0.0000 </r>
        <r>    19.1238     0.0000     0.0000     0.0000     0.0000     0.0000     0.0000     0.0000     0.0000     0.0000 </r>
        <r>    19.2734     0.0000     0.0000     0.0000     0.0000     0.0000     0.0000     0.0000     0.0000     0.0000 </r>
        <r>    19.4229     0.0000     0.0000     0.0000     0.0000     0.0000     0.0000     0.0000     0.0000     0.0000 </r>
        <r>    19.5725     0.0000     0.0000     0.0000     0.0000     0.0000     0.0000     0.0000     0.0000     0.0000 </r>
        <r>    19.7221     0.0000     0.0000     0.0000     0.0000     0.0000     0.0000     0.0000     0.0000     0.0000 </r>
        <r>    19.8717     0.0000     0.0000     0.0000     0.0000     0.0000     0.0000     0.0000     0.0000     0.0000 </r>
        <r>    20.0212     0.0000     0.0000     0.0000     0.0000     0.0000     0.0000     0.0000     0.0000     0.0000 </r>
        <r>    20.1708     0.0000     0.0000     0.0000     0.0000     0.0000     0.0000     0.0000     0.0000     0.0000 </r>
        <r>    20.3204     0.0000     0.0000     0.0000     0.0000     0.0000     0.0000     0.0000     0.0000     0.0000 </r>
        <r>    20.4700     0.0000     0.0000     0.0000     0.0000     0.0000     0.0000     0.0000     0.0000     0.0000 </r>
        <r>    20.6195     0.0000     0.0000     0.0000     0.0000     0.0000     0.0000     0.0000     0.0000     0.0000 </r>
        <r>    20.7691     0.0000     0.0000     0.0000     0.0000     0.0000     0.0000     0.0000     0.0000     0.0000 </r>
        <r>    20.9187     0.0000     0.0000     0.0000     0.0000     0.0000     0.0000     0.0000     0.0000     0.0000 </r>
        <r>    21.0683     0.0000     0.0000     0.0000     0.0000     0.0000     0.0000     0.0000     0.0000     0.0000 </r>
        <r>    21.2178     0.0000     0.0000     0.0000     0.0000     0.0000     0.0000     0.0000     0.0000     0.0000 </r>
        <r>    21.3674     0.0000     0.0000     0.0000     0.0000     0.0000     0.0000     0.0000     0.0000     0.0000 </r>
        <r>    21.5170     0.0000     0.0000     0.0000     0.0000     0.0000     0.0000     0.0000     0.0000     0.0000 </r>
        <r>    21.6666     0.0000     0.0001     0.0000     0.0011     0.0000     0.0000     0.0000     0.0000     0.0000 </r>
        <r>    21.8161     0.0000     0.0021     0.0000     0.0171     0.0000     0.0000     0.0000     0.0000     0.0000 </r>
        <r>    21.9657     0.0000     0.0000     0.0000     0.0001     0.0000     0.0000     0.0000     0.0000     0.0000 </r>
        <r>    22.1153     0.0000     0.0000     0.0000     0.0000     0.0000     0.0000     0.0000     0.0000     0.0000 </r>
        <r>    22.2649     0.0000     0.0000     0.0000     0.0000     0.0000     0.0000     0.0000     0.0000     0.0000 </r>
        <r>    22.4144     0.0000     0.0000     0.0000     0.0000     0.0000     0.0000     0.0000     0.0000     0.0000 </r>
        <r>    22.5640     0.0000     0.0000     0.0000     0.0000     0.0000     0.0000     0.0000     0.0000     0.0000 </r>
        <r>    22.7136     0.0000     0.0000     0.0000     0.0000     0.0000     0.0000     0.0000     0.0000     0.0000 </r>
        <r>    22.8632     0.0000     0.0000     0.0000     0.0000     0.0000     0.0000     0.0000     0.0000     0.0000 </r>
        <r>    23.0127     0.0000     0.0000     0.0000     0.0000     0.0000     0.0000     0.0000     0.0000     0.0000 </r>
        <r>    23.1623     0.0000     0.0000     0.0000     0.0000     0.0000     0.0000     0.0000     0.0000     0.0000 </r>
        <r>    23.3119     0.0000     0.0000     0.0000     0.0000     0.0000     0.0000     0.0000     0.0000     0.0000 </r>
        <r>    23.4615     0.0000     0.0000     0.0000     0.0000     0.0000     0.0000     0.0000     0.0000     0.0000 </r>
        <r>    23.6110     0.0000     0.0000     0.0000     0.0000     0.0000     0.0000     0.0000     0.0000     0.0000 </r>
        <r>    23.7606     0.0000     0.0000     0.0000     0.0000     0.0000     0.0000     0.0000     0.0000     0.0000 </r>
       </set>
      </set>
     </set>
    </array>
   </partial>
  </dos>
  <projected>
   <eigenvalues>
    <array>
     <dimension dim="1">band</dimension>
     <dimension dim="2">kpoint</dimension>
     <dimension dim="3">spin</dimension>
     <field>eigene</field>
     <field>occ</field>
     <set>
      <set comment="spin 1">
       <set comment="kpoint 1">
        <r>  -19.0723    1.0000 </r>
        <r>   -0.1135    1.0000 </r>
        <r>   -0.1135    1.0000 </r>
        <r>   -0.1135    1.0000 </r>
        <r>    1.1608    1.0000 </r>
        <r>    1.1608    1.0000 </r>
        <r>    1.1608    1.0000 </r>
        <r>    1.5005    1.0000 </r>
        <r>    1.5005    1.0000 </r>
        <r>    2.7063    1.0000 </r>
        <r>   18.5600    0.0000 </r>
        <r>   21.4253    0.0000 </r>
        <r>   21.4253    0.0000 </r>
        <r>   21.4253    0.0000 </r>
       </set>
       <set comment="kpoint 2">
        <r>  -18.9068    1.0000 </r>
        <r>   -2.2313    1.0000 </r>
        <r>   -1.3440    1.0000 </r>
        <r>   -1.3440    1.0000 </r>
        <r>    1.7233    1.0000 </r>
        <r>    1.7234    1.0000 </r>
        <r>    1.8503    1.0000 </r>
        <r>    3.0788    0.8751 </r>
        <r>    3.0788    0.8749 </r>
        <r>    8.1355    0.0000 </r>
        <r>    9.2429    0.0000 </r>
        <r>   16.3292    0.0000 </r>
        <r>   16.3293    0.0000 </r>
        <r>   21.7210    0.0000 </r>
       </set>
       <set comment="kpoint 3">
        <r>  -18.9135    1.0000 </r>
        <r>   -1.3921    1.0000 </r>
        <r>   -0.4706    1.0000 </r>
        <r>   -0.4706    1.0000 </r>
        <r>    0.5992    1.0000 </r>
        <r>    1.5130    1.0000 </r>
        <r>    1.7978    1.0000 </r>
        <r>    1.9477    1.0000 </r>
        <r>    1.9477    1.0000 </r>
        <r>    8.6357    0.0000 </r>
        <r>   10.3772    0.0000 </r>
        <r>   15.8988    0.0000 </r>
        <r>   15.8989    0.0000 </r>
        <r>   16.1099    0.0000 </r>
       </set>
      </set>
     </set>
    </array>
   </eigenvalues>
   <array>
    <dimension dim="1">ion</dimension>
    <dimension dim="2">band</dimension>
    <dimension dim="3">kpoint</dimension>
    <dimension dim="4">spin</dimension>
    <field>    s</field>
    <field>   py</field>
    <field>   pz</field>
    <field>   px</field>
    <field>  dxy</field>
    <field>  dyz</field>
    <field>  dz2</field>
    <field>  dxz</field>
    <field>x2-y2</field>
    <set>
     <set comment="spin1">
      <set comment="kpoint 1">
       <set comment="band 1">
        <r>  0.0121  0.0000  0.0000  0.0000  0.0000  0.0000  0.0000  0.0000  0.0000 </r>
        <r>  0.9169  0.0000  0.0000  0.0000  0.0000  0.0000  0.0000  0.0000  0.0000 </r>
       </set>
       <set comment="band 2">
        <r>  0.0000  0.0013  0.0071  0.0025  0.0000  0.0000  0.0000  0.0000  0.0000 </r>
        <r>  0.0000  0.0929  0.5223  0.1828  0.0000  0.0000  0.0000  0.0000  0.0000 </r>
       </set>
       <set comment="band 3">
        <r>  0.0000  0.0078  0.0000  0.0030  0.0000  0.0000  0.0000  0.0000  0.0000 </r>
        <r>  0.0000  0.5735  0.0016  0.2229  0.0000  0.0000  0.0000  0.0000  0.0000 </r>
       </set>
       <set comment="band 4">
        <r>  0.0000  0.0018  0.0037  0.0053  0.0000  0.0000  0.0000  0.0000  0.0000 </r>
        <r>  0.0000  0.1317  0.2741  0.3922  0.0000  0.0000  0.0000  0.0000  0.0000 </r>
       </set>
       <set comment="band 5">
        <r>  0.0000  0.0000  0.0000  0.0000  0.0059  0.0158  0.1362  0.0316  0.7333 </r>
        <r>  0.0000  0.0000  0.0000  0.0000  0.0000  0.0000  0.0000  0.0000  0.0000 </r>
       </set>
       <set comment="band 6">
        <r>  0.0000  0.0000  0.0000  0.0000  0.2408  0.0667  0.3714  0.1335  0.1104 </r>
        <r>  0.0000  0.0000  0.0000  0.0000  0.0000  0.0000  0.0000  0.0000  0.0000 </r>
       </set>
       <set comment="band 7">
        <r>  0.0000  0.0000  0.0000  0.0000  0.0609  0.2251  0.1845  0.4501  0.0021 </r>
        <r>  0.0000  0.0000  0.0000  0.0000  0.0000  0.0000  0.0000  0.0000  0.0000 </r>
       </set>
       <set comment="band 8">
        <r>  0.0000  0.0000  0.0000  0.0000  0.0008  0.6307  0.0003  0.3153  0.0001 </r>
        <r>  0.0000  0.0000  0.0000  0.0000  0.0000  0.0000  0.0000  0.0000  0.0000 </r>
       </set>
       <set comment="band 9">
        <r>  0.0000  0.0000  0.0000  0.0000  0.6307  0.0008  0.2365  0.0004  0.0788 </r>
        <r>  0.0000  0.0000  0.0000  0.0000  0.0000  0.0000  0.0000  0.0000  0.0000 </r>
       </set>
       <set comment="band 10">
        <r>  0.4171  0.0000  0.0000  0.0000  0.0000  0.0000  0.0000  0.0000  0.0000 </r>
        <r>  0.0816  0.0000  0.0000  0.0000  0.0000  0.0000  0.0000  0.0000  0.0000 </r>
       </set>
       <set comment="band 11">
        <r>  0.0000  0.0000  0.0000  0.0000  0.0000  0.0000  0.0000  0.0000  0.0000 </r>
        <r>  0.0000  0.0000  0.0000  0.0000  0.0000  0.0000  0.0000  0.0000  0.0000 </r>
       </set>
       <set comment="band 12">
        <r>  0.0000  0.0000  0.0000  0.0000  0.0408  0.0258  0.1794  0.0516  0.0384 </r>
        <r>  0.0000  0.0000  0.0000  0.0000  0.0000  0.0000  0.0000  0.0000  0.0000 </r>
       </set>
       <set comment="band 13">
        <r>  0.0000  0.0000  0.0000  0.0000  0.0174  0.0844  0.0618  0.1689  0.0034 </r>
        <r>  0.0000  0.0000  0.0000  0.0000  0.0000  0.0000  0.0000  0.0000  0.0000 </r>
       </set>
       <set comment="band 14">
        <r>  0.0000  0.0000  0.0000  0.0000  0.0538  0.0017  0.0107  0.0035  0.2659 </r>
        <r>  0.0000  0.0000  0.0000  0.0000  0.0000  0.0000  0.0000  0.0000  0.0000 </r>
       </set>
      </set>
      <set comment="kpoint 2">
       <set comment="band 1">
        <r>  0.0000  0.0006  0.0000  0.0048  0.0000  0.0000  0.0000  0.0000  0.0000 </r>
        <r>  0.9348  0.0000  0.0000  0.0000  0.0000  0.0000  0.0000  0.0000  0.0000 </r>
       </set>
       <set comment="band 2">
        <r>  0.0950  0.0000  0.0000  0.0000  0.0362  0.0000  0.0305  0.0000  0.0554 </r>
        <r>  0.0000  0.0526  0.0000  0.4212  0.0000  0.0000  0.0000  0.0000  0.0000 </r>
       </set>
       <set comment="band 3">
        <r>  0.0000  0.0000  0.0000  0.0000  0.0381  0.2109  0.0375  0.0179  0.0002 </r>
        <r>  0.0000  0.1122  0.3810  0.0140  0.0000  0.0000  0.0000  0.0000  0.0000 </r>
       </set>
       <set comment="band 4">
        <r>  0.0000  0.0000  0.0000  0.0000  0.1151  0.0699  0.1131  0.0059  0.0006 </r>
        <r>  0.0000  0.3386  0.1262  0.0423  0.0000  0.0000  0.0000  0.0000  0.0000 </r>
       </set>
       <set comment="band 5">
        <r>  0.0000  0.0000  0.0000  0.0000  0.0401  0.1057  0.1358  0.4748  0.1896 </r>
        <r>  0.0000  0.0050  0.0090  0.0006  0.0000  0.0000  0.0000  0.0000  0.0000 </r>
       </set>
       <set comment="band 6">
        <r>  0.0000  0.0000  0.0000  0.0000  0.0637  0.0666  0.2157  0.2989  0.3011 </r>
        <r>  0.0000  0.0080  0.0057  0.0010  0.0000  0.0000  0.0000  0.0000  0.0000 </r>
       </set>
       <set comment="band 7">
        <r>  0.0054  0.0000  0.0000  0.0000  0.2351  0.0000  0.1984  0.0000  0.3599 </r>
        <r>  0.0000  0.0168  0.0000  0.1341  0.0000  0.0000  0.0000  0.0000  0.0000 </r>
       </set>
       <set comment="band 8">
        <r>  0.0000  0.0000  0.0000  0.0000  0.1184  0.3650  0.0580  0.1258  0.0099 </r>
        <r>  0.0000  0.0725  0.2148  0.0091  0.0000  0.0000  0.0000  0.0000  0.0000 </r>
       </set>
       <set comment="band 9">
        <r>  0.0000  0.0000  0.0000  0.0000  0.3119  0.1385  0.1528  0.0477  0.0260 </r>
        <r>  0.0000  0.1910  0.0815  0.0239  0.0000  0.0000  0.0000  0.0000  0.0000 </r>
       </set>
       <set comment="band 10">
        <r>  0.0000  0.0337  0.0000  0.2694  0.0000  0.0000  0.0000  0.0000  0.0000 </r>
        <r>  0.0498  0.0000  0.0000  0.0000  0.0000  0.0000  0.0000  0.0000  0.0000 </r>
       </set>
       <set comment="band 11">
        <r>  0.4208  0.0000  0.0000  0.0000  0.0140  0.0000  0.0118  0.0000  0.0214 </r>
        <r>  0.0000  0.0302  0.0000  0.2418  0.0000  0.0000  0.0000  0.0000  0.0000 </r>
       </set>
       <set comment="band 12">
        <r>  0.0000  0.3023  0.1215  0.0378  0.0000  0.0000  0.0000  0.0000  0.0000 </r>
        <r>  0.0000  0.0000  0.0000  0.0000  0.0000  0.0000  0.0000  0.0000  0.0000 </r>
       </set>
       <set comment="band 13">
        <r>  0.0000  0.1080  0.3401  0.0135  0.0000  0.0000  0.0000  0.0000  0.0000 </r>
        <r>  0.0000  0.0000  0.0000  0.0000  0.0000  0.0000  0.0000  0.0000  0.0000 </r>
       </set>
       <set comment="band 14">
        <r>  0.1965  0.0000  0.0000  0.0000  0.0615  0.0000  0.0519  0.0000  0.0942 </r>
        <r>  0.0000  0.0003  0.0000  0.0027  0.0000  0.0000  0.0000  0.0000  0.0000 </r>
       </set>
      </set>
      <set comment="kpoint 3">
       <set comment="band 1">
        <r>  0.0013  0.0000  0.0000  0.0000  0.0059  0.0000  0.0022  0.0000  0.0007 </r>
        <r>  0.9337  0.0000  0.0000  0.0000  0.0000  0.0000  0.0000  0.0000  0.0000 </r>
       </set>
       <set comment="band 2">
        <r>  0.0000  0.0213  0.0000  0.0427  0.0000  0.0000  0.0000  0.0000  0.0000 </r>
        <r>  0.0000  0.2129  0.0000  0.4258  0.0000  0.0000  0.0000  0.0000  0.0000 </r>
       </set>
       <set comment="band 3">
        <r>  0.0000  0.0000  0.0292  0.0000  0.0000  0.0000  0.0000  0.0000  0.0000 </r>
        <r>  0.0000  0.0000  0.7505  0.0000  0.0000  0.0000  0.0000  0.0000  0.0000 </r>
       </set>
       <set comment="band 4">
        <r>  0.0000  0.0195  0.0000  0.0097  0.0000  0.0000  0.0000  0.0000  0.0000 </r>
        <r>  0.0000  0.5003  0.0000  0.2502  0.0000  0.0000  0.0000  0.0000  0.0000 </r>
       </set>
       <set comment="band 5">
        <r>  0.0000  0.0000  0.0000  0.0000  0.1930  0.0000  0.6514  0.0000  0.0241 </r>
        <r>  0.0000  0.0000  0.0000  0.0000  0.0000  0.0000  0.0000  0.0000  0.0000 </r>
       </set>
       <set comment="band 6">
        <r>  0.0046  0.0000  0.0000  0.0000  0.6109  0.0000  0.2291  0.0000  0.0764 </r>
        <r>  0.0226  0.0000  0.0000  0.0000  0.0000  0.0000  0.0000  0.0000  0.0000 </r>
       </set>
       <set comment="band 7">
        <r>  0.0000  0.0000  0.0000  0.0000  0.0000  0.6428  0.0000  0.3214  0.0000 </r>
        <r>  0.0000  0.0000  0.0000  0.0000  0.0000  0.0000  0.0000  0.0000  0.0000 </r>
       </set>
       <set comment="band 8">
        <r>  0.0000  0.0000  0.0000  0.0000  0.1081  0.0000  0.0000  0.0000  0.8651 </r>
        <r>  0.0000  0.0000  0.0000  0.0000  0.0000  0.0000  0.0000  0.0000  0.0000 </r>
       </set>
       <set comment="band 9">
        <r>  0.0000  0.0000  0.0000  0.0000  0.0000  0.3244  0.0000  0.6489  0.0000 </r>
        <r>  0.0000  0.0000  0.0000  0.0000  0.0000  0.0000  0.0000  0.0000  0.0000 </r>
       </set>
       <set comment="band 10">
        <r>  0.6226  0.0000  0.0000  0.0000  0.0188  0.0000  0.0071  0.0000  0.0024 </r>
        <r>  0.0139  0.0000  0.0000  0.0000  0.0000  0.0000  0.0000  0.0000  0.0000 </r>
       </set>
       <set comment="band 11">
        <r>  0.0000  0.0803  0.0000  0.1606  0.0000  0.0000  0.0000  0.0000  0.0000 </r>
        <r>  0.0000  0.0870  0.0000  0.1741  0.0000  0.0000  0.0000  0.0000  0.0000 </r>
       </set>
       <set comment="band 12">
        <r>  0.0000  0.0000  0.4105  0.0000  0.0000  0.0000  0.0000  0.0000  0.0000 </r>
        <r>  0.0000  0.0000  0.1478  0.0000  0.0000  0.0000  0.0000  0.0000  0.0000 </r>
       </set>
       <set comment="band 13">
        <r>  0.0000  0.2737  0.0000  0.1368  0.0000  0.0000  0.0000  0.0000  0.0000 </r>
        <r>  0.0000  0.0985  0.0000  0.0493  0.0000  0.0000  0.0000  0.0000  0.0000 </r>
       </set>
       <set comment="band 14">
        <r>  0.0000  0.0000  0.0000  0.0000  0.0697  0.0000  0.2352  0.0000  0.0087 </r>
        <r>  0.0000  0.0000  0.0000  0.0000  0.0000  0.0000  0.0000  0.0000  0.0000 </r>
       </set>
      </set>
     </set>
    </set>
   </array>
  </projected>
 </calculation>
 <structure name="finalpos" >
  <crystal>
   <varray name="basis" >
    <v>       3.01395775       0.00000000       1.74010806 </v>
    <v>       1.00465292       2.84158622       1.74010806 </v>
    <v>      -0.00000002      -0.00000001       3.48021917 </v>
   </varray>
   <i name="volume">     29.80606162 </i>
   <varray name="rec_basis" >
    <v>       0.33178965      -0.11730541       0.00000000 </v>
    <v>      -0.00000000       0.35191612       0.00000000 </v>
    <v>      -0.16589468      -0.11730525       0.28733822 </v>
   </varray>
  </crystal>
  <varray name="positions" >
   <v>       0.00000000       0.00000000       0.00000000 </v>
   <v>       0.50000000       0.50000000       0.50000000 </v>
  </varray>
 </structure>
</modeling>
