<?xml version="1.0" encoding="ISO-8859-1"?>
<modeling>
 <generator>
  <i name="program" type="string">vasp </i>
  <i name="version" type="string">5.4.4.18Apr17-6-g9f103f2a35  </i>
  <i name="subversion" type="string">(build Jan 25 2021 16:16:55) complex            parallel </i>
  <i name="platform" type="string">LinuxIFC </i>
  <i name="date" type="string">2026 05 08 </i>
  <i name="time" type="string">08:26:36 </i>
 </generator>
 <incar>
  <i type="string" name="SYSTEM"> AgF testing</i>
  <i type="int" name="ISTART">     0</i>
  <i type="string" name="PREC">accurate</i>
  <i type="string" name="ALGO"> Normal</i>
  <i type="int" name="ICHARG">     2</i>
  <i type="int" name="IBRION">    -1</i>
  <i name="EDIFF">      0.00010000</i>
  <i type="int" name="NSW">     0</i>
  <i name="ENCUT">    300.00000000</i>
  <i type="logical" name="LREAL"> F  </i>
  <i type="int" name="ISMEAR">     0</i>
  <i name="SIGMA">      0.05000000</i>
  <i type="logical" name="LWAVE"> F  </i>
  <i type="logical" name="LCHARG"> F  </i>
  <i type="int" name="LORBIT">    11</i>
  <i type="logical" name="LASPH"> T  </i>
  <v type="int" name="KPOINT_BSE">    -1     0     0     0</v>
  <i type="logical" name="LASPH"> T  </i>
 </incar>
 <structure name="primitive_cell" >
  <crystal>
   <varray name="basis" >
    <v>       3.01395775       0.00000000       1.74010806 </v>
    <v>       1.00465292       2.84158622       1.74010806 </v>
    <v>      -0.00000002      -0.00000001       3.48021917 </v>
   </varray>
   <i name="volume">     29.80606162 </i>
   <varray name="rec_basis" >
    <v>       0.33178965      -0.11730541       0.00000000 </v>
    <v>      -0.00000000       0.35191612       0.00000000 </v>
    <v>      -0.16589468      -0.11730525       0.28733822 </v>
   </varray>
  </crystal>
  <varray name="positions" >
   <v>       0.00000000       0.00000000       0.00000000 </v>
   <v>      -0.50000000      -0.50000000      -0.50000000 </v>
  </varray>
 </structure>
 <varray name="primitive_index" >
  <v type="int" >        1 </v>
  <v type="int" >        2 </v>
 </varray>
 <kpoints>
  <generation param="Gamma">
   <v type="int" name="divisions">       5        5        5 </v>
   <v name="usershift">      0.00000000       0.00000000       0.00000000 </v>
   <v name="genvec1">      0.20000000      -0.00000000       0.00000000 </v>
   <v name="genvec2">      0.00000000       0.20000000      -0.00000000 </v>
   <v name="genvec3">      0.00000000       0.00000000       0.20000000 </v>
   <v name="shift">      0.00000000       0.00000000       0.00000000 </v>
  </generation>
  <varray name="kpointlist" >
   <v>       0.00000000       0.00000000       0.00000000 </v>
   <v>       0.20000000       0.00000000       0.00000000 </v>
   <v>       0.40000000       0.00000000       0.00000000 </v>
   <v>       0.20000000       0.20000000       0.00000000 </v>
   <v>       0.40000000       0.20000000       0.00000000 </v>
   <v>      -0.40000000       0.20000000      -0.00000000 </v>
   <v>      -0.20000000       0.20000000      -0.00000000 </v>
   <v>       0.40000000       0.40000000       0.00000000 </v>
   <v>      -0.40000000       0.40000000      -0.00000000 </v>
   <v>      -0.40000000       0.40000000       0.20000000 </v>
  </varray>
  <varray name="weights" >
   <v>       0.00800000 </v>
   <v>       0.06400000 </v>
   <v>       0.06400000 </v>
   <v>       0.04800000 </v>
   <v>       0.19200000 </v>
   <v>       0.19200000 </v>
   <v>       0.09600000 </v>
   <v>       0.04800000 </v>
   <v>       0.09600000 </v>
   <v>       0.19200000 </v>
  </varray>
 </kpoints>
 <parameters>
  <separator name="general" >
   <i type="string" name="SYSTEM">AgF testing</i>
   <i type="logical" name="LCOMPAT"> F  </i>
  </separator>
  <separator name="electronic" >
   <i type="string" name="PREC">accura</i>
   <i name="ENMAX">    300.00000000</i>
   <i name="ENAUG">    613.61400000</i>
   <i name="EDIFF">      0.00010000</i>
   <i type="int" name="IALGO">    38</i>
   <i type="int" name="IWAVPR">    10</i>
   <i type="int" name="NBANDS">    14</i>
   <i name="NELECT">     18.00000000</i>
   <i type="int" name="TURBO">     0</i>
   <i type="int" name="IRESTART">     0</i>
   <i type="int" name="NREBOOT">     0</i>
   <i type="int" name="NMIN">     0</i>
   <i name="EREF">      0.00000000</i>
   <separator name="electronic smearing" >
    <i type="int" name="ISMEAR">     0</i>
    <i name="SIGMA">      0.05000000</i>
    <i name="KSPACING">      0.50000000</i>
    <i type="logical" name="KGAMMA"> T  </i>
   </separator>
   <separator name="electronic projectors" >
    <i type="logical" name="LREAL"> F  </i>
    <v name="ROPT">      0.00000000      0.00000000</v>
    <i type="int" name="LMAXPAW">  -100</i>
    <i type="int" name="LMAXMIX">     2</i>
    <i type="logical" name="NLSPLINE"> F  </i>
   </separator>
   <separator name="electronic startup" >
    <i type="int" name="ISTART">     0</i>
    <i type="int" name="ICHARG">     2</i>
    <i type="int" name="INIWAV">     1</i>
   </separator>
   <separator name="electronic spin" >
    <i type="int" name="ISPIN">     1</i>
    <i type="logical" name="LNONCOLLINEAR"> F  </i>
    <v name="MAGMOM">      1.00000000      1.00000000</v>
    <i name="NUPDOWN">     -1.00000000</i>
    <i type="logical" name="LSORBIT"> F  </i>
    <v name="SAXIS">      0.00000000      0.00000000      1.00000000</v>
    <i type="logical" name="LSPIRAL"> F  </i>
    <v name="QSPIRAL">      0.00000000      0.00000000      0.00000000</v>
    <i type="logical" name="LZEROZ"> F  </i>
   </separator>
   <separator name="electronic exchange-correlation" >
    <i type="logical" name="LASPH"> T  </i>
    <i type="logical" name="LMETAGGA"> F  </i>
   </separator>
   <separator name="electronic convergence" >
    <i type="int" name="NELM">    60</i>
    <i type="int" name="NELMDL">    -5</i>
    <i type="int" name="NELMIN">     2</i>
    <i name="ENINI">    300.00000000</i>
    <separator name="electronic convergence detail" >
     <i type="logical" name="LDIAG"> T  </i>
     <i type="logical" name="LSUBROT"> F  </i>
     <i name="WEIMIN">      0.00000000</i>
     <i name="EBREAK">      0.00000179</i>
     <i name="DEPER">      0.30000000</i>
     <i type="int" name="NRMM">     4</i>
     <i name="TIME">      0.40000000</i>
    </separator>
   </separator>
   <separator name="electronic mixer" >
    <i name="AMIX">      0.40000000</i>
    <i name="BMIX">      1.00000000</i>
    <i name="AMIN">      0.10000000</i>
    <i name="AMIX_MAG">      1.60000000</i>
    <i name="BMIX_MAG">      1.00000000</i>
    <separator name="electronic mixer details" >
     <i type="int" name="IMIX">     4</i>
     <i type="logical" name="MIXFIRST"> F  </i>
     <i type="int" name="MAXMIX">   -45</i>
     <i name="WC">    100.00000000</i>
     <i type="int" name="INIMIX">     1</i>
     <i type="int" name="MIXPRE">     1</i>
     <i type="int" name="MREMOVE">     5</i>
    </separator>
   </separator>
   <separator name="electronic dipolcorrection" >
    <i type="logical" name="LDIPOL"> F  </i>
    <i type="logical" name="LMONO"> F  </i>
    <i type="int" name="IDIPOL">     0</i>
    <i name="EPSILON">      1.00000000</i>
    <v name="DIPOL">   -100.00000000   -100.00000000   -100.00000000</v>
    <i name="EFIELD">      0.00000000</i>
   </separator>
  </separator>
  <separator name="grids" >
   <i type="int" name="NGX">    20</i>
   <i type="int" name="NGY">    20</i>
   <i type="int" name="NGZ">    20</i>
   <i type="int" name="NGXF">    40</i>
   <i type="int" name="NGYF">    40</i>
   <i type="int" name="NGZF">    40</i>
   <i type="logical" name="ADDGRID"> F  </i>
  </separator>
  <separator name="ionic" >
   <i type="int" name="NSW">     0</i>
   <i type="int" name="IBRION">    -1</i>
   <i type="int" name="MDALGO">     0</i>
   <i type="int" name="ISIF">     2</i>
   <i name="PSTRESS">      0.00000000</i>
   <i name="EDIFFG">      0.00100000</i>
   <i type="int" name="NFREE">     0</i>
   <i name="POTIM">      0.50000000</i>
   <i name="SMASS">     -3.00000000</i>
   <i name="SCALEE">      1.00000000</i>
  </separator>
  <separator name="ionic md" >
   <i name="TEBEG">      0.00010000</i>
   <i name="TEEND">      0.00010000</i>
   <i type="int" name="NBLOCK">     1</i>
   <i type="int" name="KBLOCK">     1</i>
   <i type="int" name="NPACO">   256</i>
   <i name="APACO">     16.00000000</i>
  </separator>
  <separator name="symmetry" >
   <i type="int" name="ISYM">     2</i>
   <i name="SYMPREC">      0.00001000</i>
  </separator>
  <separator name="dos" >
   <i type="int" name="LORBIT">    11</i>
   <v name="RWIGS">     -1.00000000     -1.00000000</v>
   <i type="int" name="NEDOS">   301</i>
   <i name="EMIN">     10.00000000</i>
   <i name="EMAX">    -10.00000000</i>
   <i name="EFERMI">      0.00000000</i>
  </separator>
  <separator name="writing" >
   <i type="int" name="NWRITE">     2</i>
   <i type="logical" name="LWAVE"> F  </i>
   <i type="logical" name="LDOWNSAMPLE"> F  </i>
   <i type="logical" name="LCHARG"> F  </i>
   <i type="logical" name="LPARD"> F  </i>
   <i type="logical" name="LVTOT"> F  </i>
   <i type="logical" name="LVHAR"> F  </i>
   <i type="logical" name="LELF"> F  </i>
   <i type="logical" name="LOPTICS"> F  </i>
   <v name="STM">      0.00000000      0.00000000      0.00000000      0.00000000      0.00000000      0.00000000      0.00000000</v>
  </separator>
  <separator name="performance" >
   <i type="int" name="NPAR">     2</i>
   <i type="int" name="NSIM">     4</i>
   <i type="int" name="NBLK">    -1</i>
   <i type="logical" name="LPLANE"> T  </i>
   <i type="logical" name="LSCALAPACK"> T  </i>
   <i type="logical" name="LSCAAWARE"> F  </i>
   <i type="logical" name="LSCALU"> F  </i>
   <i type="logical" name="LASYNC"> F  </i>
   <i type="logical" name="LORBITALREAL"> F  </i>
  </separator>
  <separator name="miscellaneous" >
   <i type="int" name="IDIOT">     3</i>
   <i type="int" name="ISPECIAL">     0</i>
   <i type="logical" name="LMUSIC"> F  </i>
   <v name="POMASS">    107.86800000     18.99800000</v>
   <v name="DARWINR">      0.00000000      0.00000000</v>
   <v name="DARWINV">      1.00000000      1.00000000</v>
   <i type="logical" name="LCORR"> T  </i>
  </separator>
  <i type="logical" name="GGA_COMPAT"> T  </i>
  <i type="logical" name="LBERRY"> F  </i>
  <i type="int" name="ICORELEVEL">     0</i>
  <i type="logical" name="LDAU"> F  </i>
  <i type="int" name="I_CONSTRAINED_M">     0</i>
  <separator name="electronic exchange-correlation" >
   <i type="string" name="GGA">--</i>
   <i type="int" name="VOSKOWN">     0</i>
   <i type="logical" name="LHFCALC"> F  </i>
   <i type="string" name="PRECFOCK"></i>
   <i type="logical" name="LSYMGRAD"> F  </i>
   <i type="logical" name="LHFONE"> F  </i>
   <i type="logical" name="LRHFCALC"> F  </i>
   <i type="logical" name="LTHOMAS"> F  </i>
   <i type="logical" name="LMODELHF"> F  </i>
   <i name="ENCUT4O">     -1.00000000</i>
   <i type="int" name="EXXOEP">     0</i>
   <i type="int" name="FOURORBIT">     0</i>
   <i name="AEXX">      0.00000000</i>
   <i name="HFALPHA">      0.00000000</i>
   <i name="MCALPHA">      0.00000000</i>
   <i name="ALDAX">      1.00000000</i>
   <i name="AGGAX">      1.00000000</i>
   <i name="ALDAC">      1.00000000</i>
   <i name="AGGAC">      1.00000000</i>
   <i type="int" name="NKREDX">     1</i>
   <i type="int" name="NKREDY">     1</i>
   <i type="int" name="NKREDZ">     1</i>
   <i type="logical" name="SHIFTRED"> F  </i>
   <i type="logical" name="ODDONLY"> F  </i>
   <i type="logical" name="EVENONLY"> F  </i>
   <i type="int" name="LMAXFOCK">     0</i>
   <i type="int" name="NMAXFOCKAE">     0</i>
   <i type="logical" name="LFOCKAEDFT"> F  </i>
   <i name="HFSCREEN">      0.00000000</i>
   <i name="HFSCREENC">      0.00000000</i>
   <i type="int" name="NBANDSGWLOW">     0</i>
  </separator>
  <separator name="vdW DFT" >
   <i type="logical" name="LUSE_VDW"> F  </i>
   <i name="Zab_VDW">     -0.84910000</i>
   <i name="PARAM1">      0.12340000</i>
   <i name="PARAM2">      1.00000000</i>
   <i name="PARAM3">      0.00000000</i>
  </separator>
  <separator name="model GW" >
   <i type="int" name="MODEL_GW">     0</i>
   <i name="MODEL_EPS0">      8.94181849</i>
   <i name="MODEL_ALPHA">      1.00000000</i>
  </separator>
  <separator name="linear response parameters" >
   <i type="logical" name="LEPSILON"> F  </i>
   <i type="logical" name="LRPA"> F  </i>
   <i type="logical" name="LNABLA"> F  </i>
   <i type="logical" name="LVEL"> F  </i>
   <i type="int" name="KINTER">     0</i>
   <i name="CSHIFT">      0.10000000</i>
   <i name="OMEGAMAX">     -1.00000000</i>
   <i name="DEG_THRESHOLD">      0.00200000</i>
   <i name="RTIME">     -0.10000000</i>
   <i name="WPLASMAI">      0.00000000</i>
   <v name="DFIELD">      0.00000000      0.00000000      0.00000000</v>
   <v name="WPLASMA">      0.00000000      0.00000000      0.00000000      0.00000000      0.00000000      0.00000000      0.00000000      0.00000000      0.00000000</v>
  </separator>
  <separator name="orbital magnetization" >
   <i type="logical" name="NUCIND"> F  </i>
   <v name="MAGPOS">      0.00000000      0.00000000      0.00000000</v>
   <i type="logical" name="LNICSALL"> T  </i>
   <i type="logical" name="ORBITALMAG"> F  </i>
   <i type="logical" name="LMAGBLOCH"> F  </i>
   <i type="logical" name="LCHIMAG"> F  </i>
   <i type="logical" name="LGAUGE"> T  </i>
   <i type="int" name="MAGATOM">     0</i>
   <v name="MAGDIPOL">      0.00000000      0.00000000      0.00000000</v>
   <v name="AVECCONST">      0.00000000      0.00000000      0.00000000</v>
  </separator>
  <separator name="response functions" >
   <i type="logical" name="LADDER"> F  </i>
   <i type="logical" name="LRPAFORCE"> F  </i>
   <i type="logical" name="LFXC"> F  </i>
   <i type="logical" name="LHARTREE"> T  </i>
   <i type="int" name="IBSE">     0</i>
   <v type="int" name="KPOINT">    -1     0     0     0</v>
   <i type="logical" name="LTCTE"> F  </i>
   <i type="logical" name="LTETE"> F  </i>
   <i type="logical" name="LTRIPLET"> F  </i>
   <i type="logical" name="LFXCEPS"> F  </i>
   <i type="logical" name="LFXHEG"> F  </i>
   <i type="int" name="NATURALO">     2</i>
   <i type="logical" name="L2ORDER"> F  </i>
   <i type="logical" name="LMP2LT"> F  </i>
   <i type="logical" name="LUSEW"> F  </i>
   <i name="ENCUTGW">     -2.00000000</i>
   <i name="ENCUTGWSOFT">     -2.00000000</i>
   <i name="ENCUTLF">     -1.00000000</i>
   <i type="int" name="LMAXMP2">    -1</i>
   <i name="SCISSOR">      0.00000000</i>
   <i type="int" name="NOMEGA">     0</i>
   <i type="int" name="NOMEGAR">     0</i>
   <i type="int" name="NBANDSGW">    -1</i>
   <i type="int" name="NBANDSO">    -1</i>
   <i type="int" name="NBANDSV">    -1</i>
   <i type="int" name="NELM">     1</i>
   <i type="int" name="NELMHF">     1</i>
   <i type="int" name="DIM">     3</i>
   <i type="int" name="ANTIRES">     0</i>
   <i name="OMEGAMAX">    -30.00000000</i>
   <i name="OMEGAMIN">    -30.00000000</i>
   <i name="OMEGATL">   -200.00000000</i>
   <i type="int" name="OMEGAGRID">   140</i>
   <i name="CSHIFT">     -0.10000000</i>
   <i type="logical" name="SELFENERGY"> F  </i>
   <i type="logical" name="LSPECTRAL"> F  </i>
   <i type="logical" name="LSPECTRALGW"> F  </i>
   <i type="logical" name="LSINGLES"> F  </i>
   <i type="logical" name="LFERMIGW"> F  </i>
   <i type="logical" name="ODDONLYGW"> F  </i>
   <i type="logical" name="EVENONLYGW"> F  </i>
   <i type="int" name="NKREDLFX">     1</i>
   <i type="int" name="NKREDLFY">     1</i>
   <i type="int" name="NKREDLFZ">     1</i>
   <i type="int" name="MAXMEM">  2800</i>
   <i type="int" name="TELESCOPE">     0</i>
   <i type="int" name="TAUPAR">     1</i>
   <i type="int" name="OMEGAPAR">    -1</i>
   <i name="LAMBDA">      1.00000000</i>
  </separator>
  <separator name="External order field" >
   <i name="OFIELD_KAPPA">      0.00000000</i>
   <v name="OFIELD_K">      0.00000000      0.00000000      0.00000000</v>
   <i name="OFIELD_Q6_NEAR">      0.00000000</i>
   <i name="OFIELD_Q6_FAR">      0.00000000</i>
   <i name="OFIELD_A">      0.00000000</i>
  </separator>
 </parameters>
 <atominfo>
  <atoms>       2 </atoms>
  <types>       2 </types>
  <array name="atoms" >
   <dimension dim="1">ion</dimension>
   <field type="string">element</field>
   <field type="int">atomtype</field>
   <set>
    <rc><c>Ag</c><c>   1</c></rc>
    <rc><c>F </c><c>   2</c></rc>
   </set>
  </array>
  <array name="atomtypes" >
   <dimension dim="1">type</dimension>
   <field type="int">atomspertype</field>
   <field type="string">element</field>
   <field>mass</field>
   <field>valence</field>
   <field type="string">pseudopotential</field>
   <set>
    <rc><c>   1</c><c>Ag</c><c>    107.86800000</c><c>     11.00000000</c><c>  PAW_PBE Ag 02Apr2005                  </c></rc>
    <rc><c>   1</c><c>F </c><c>     18.99800000</c><c>      7.00000000</c><c>  PAW_PBE F 08Apr2002                   </c></rc>
   </set>
  </array>
 </atominfo>
 <structure name="initialpos" >
  <crystal>
   <varray name="basis" >
    <v>       3.01395775       0.00000000       1.74010806 </v>
    <v>       1.00465292       2.84158622       1.74010806 </v>
    <v>      -0.00000002      -0.00000001       3.48021917 </v>
   </varray>
   <i name="volume">     29.80606162 </i>
   <varray name="rec_basis" >
    <v>       0.33178965      -0.11730541       0.00000000 </v>
    <v>      -0.00000000       0.35191612       0.00000000 </v>
    <v>      -0.16589468      -0.11730525       0.28733822 </v>
   </varray>
  </crystal>
  <varray name="positions" >
   <v>       0.00000000       0.00000000       0.00000000 </v>
   <v>       0.50000000       0.50000000       0.50000000 </v>
  </varray>
 </structure>
 <calculation>
  <scstep>
   <time name="dav">    0.04    0.11</time>
   <time name="total">    0.12    0.21</time>
   <energy>
    <i name="alphaZ">     61.84911921 </i>
    <i name="ewald">  -1385.69313289 </i>
    <i name="hartreedc">   -411.39312044 </i>
    <i name="XCdc">     25.89959818 </i>
    <i name="pawpsdc">   1542.66995988 </i>
    <i name="pawaedc">  -1501.65866420 </i>
    <i name="eentropy">     -0.00431112 </i>
    <i name="bandstr">     34.18919923 </i>
    <i name="atom">   1694.85739942 </i>
    <i name="e_fr_energy">     60.71604727 </i>
    <i name="e_wo_entrp">     60.72035839 </i>
    <i name="e_0_energy">     60.71820283 </i>
   </energy>
  </scstep>
  <scstep>
   <time name="dav">    0.04    0.04</time>
   <time name="total">    0.04    0.04</time>
   <energy>
    <i name="e_fr_energy">     -5.93230818 </i>
    <i name="e_wo_entrp">     -5.93109407 </i>
    <i name="e_0_energy">     -5.93170113 </i>
   </energy>
  </scstep>
  <scstep>
   <time name="dav">    0.04    0.04</time>
   <time name="total">    0.04    0.04</time>
   <energy>
    <i name="e_fr_energy">     -7.09740877 </i>
    <i name="e_wo_entrp">     -7.09618856 </i>
    <i name="e_0_energy">     -7.09679866 </i>
   </energy>
  </scstep>
  <scstep>
   <time name="dav">    0.04    0.04</time>
   <time name="total">    0.04    0.04</time>
   <energy>
    <i name="e_fr_energy">     -7.10074078 </i>
    <i name="e_wo_entrp">     -7.09952059 </i>
    <i name="e_0_energy">     -7.10013068 </i>
   </energy>
  </scstep>
  <scstep>
   <time name="dav">    0.04    0.04</time>
   <time name="total">    0.04    0.04</time>
   <energy>
    <i name="e_fr_energy">     -7.10076339 </i>
    <i name="e_wo_entrp">     -7.09954320 </i>
    <i name="e_0_energy">     -7.10015330 </i>
   </energy>
  </scstep>
  <scstep>
   <time name="dav">    0.04    0.04</time>
   <time name="total">    0.12    0.12</time>
   <energy>
    <i name="e_fr_energy">     -6.58345257 </i>
    <i name="e_wo_entrp">     -6.58219361 </i>
    <i name="e_0_energy">     -6.58282309 </i>
   </energy>
  </scstep>
  <scstep>
   <time name="dav">    0.04    0.04</time>
   <time name="total">    0.12    0.12</time>
   <energy>
    <i name="e_fr_energy">     -6.53637207 </i>
    <i name="e_wo_entrp">     -6.53512235 </i>
    <i name="e_0_energy">     -6.53574721 </i>
   </energy>
  </scstep>
  <scstep>
   <time name="dav">    0.04    0.04</time>
   <time name="total">    0.12    0.12</time>
   <energy>
    <i name="e_fr_energy">     -6.51724780 </i>
    <i name="e_wo_entrp">     -6.51599208 </i>
    <i name="e_0_energy">     -6.51661994 </i>
   </energy>
  </scstep>
  <scstep>
   <time name="dav">    0.04    0.04</time>
   <time name="total">    0.12    0.12</time>
   <energy>
    <i name="e_fr_energy">     -6.51698463 </i>
    <i name="e_wo_entrp">     -6.51572678 </i>
    <i name="e_0_energy">     -6.51635570 </i>
   </energy>
  </scstep>
  <scstep>
   <time name="dav">    0.03    0.03</time>
   <time name="total">    0.11    0.11</time>
   <energy>
    <i name="e_fr_energy">     -6.51715623 </i>
    <i name="e_wo_entrp">     -6.51589866 </i>
    <i name="e_0_energy">     -6.51652744 </i>
   </energy>
  </scstep>
  <scstep>
   <time name="dav">    0.03    0.03</time>
   <time name="total">    0.10    0.10</time>
   <energy>
    <i name="alphaZ">     61.84911921 </i>
    <i name="ewald">  -1385.69313289 </i>
    <i name="hartreedc">   -422.44975917 </i>
    <i name="XCdc">     26.53164819 </i>
    <i name="pawpsdc">   1738.56489669 </i>
    <i name="pawaedc">  -1696.15533818 </i>
    <i name="eentropy">     -0.00125761 </i>
    <i name="bandstr">    -24.02072680 </i>
    <i name="atom">   1694.85739942 </i>
    <i name="e_fr_energy">     -6.51715114 </i>
    <i name="e_wo_entrp">     -6.51589353 </i>
    <i name="e_0_energy">     -6.51652234 </i>
   </energy>
  </scstep>
  <structure>
   <crystal>
    <varray name="basis" >
     <v>       3.01395775       0.00000000       1.74010806 </v>
     <v>       1.00465292       2.84158622       1.74010806 </v>
     <v>      -0.00000002      -0.00000001       3.48021917 </v>
    </varray>
    <i name="volume">     29.80606162 </i>
    <varray name="rec_basis" >
     <v>       0.33178965      -0.11730541       0.00000000 </v>
     <v>      -0.00000000       0.35191612       0.00000000 </v>
     <v>      -0.16589468      -0.11730525       0.28733822 </v>
    </varray>
   </crystal>
   <varray name="positions" >
    <v>       0.00000000       0.00000000       0.00000000 </v>
    <v>       0.50000000       0.50000000       0.50000000 </v>
   </varray>
  </structure>
  <varray name="forces" >
   <v>      -0.00000000       0.00000000      -0.00000000 </v>
   <v>       0.00000000      -0.00000000       0.00000000 </v>
  </varray>
  <varray name="stress" >
   <v>    -399.15008407      -0.00004889       0.00020426 </v>
   <v>      -0.00004889    -399.14997064       0.00014396 </v>
   <v>       0.00020426       0.00014396    -399.15020378 </v>
  </varray>
  <energy>
   <i name="e_fr_energy">     -6.51715114 </i>
   <i name="e_wo_entrp">     -6.51652234 </i>
   <i name="e_0_energy">     -0.00125761 </i>
  </energy>
  <time name="totalsc">    1.17    1.26</time>
  <eigenvalues>
   <array>
    <dimension dim="1">band</dimension>
    <dimension dim="2">kpoint</dimension>
    <dimension dim="3">spin</dimension>
    <field>eigene</field>
    <field>occ</field>
    <set>
     <set comment="spin 1">
      <set comment="kpoint 1">
       <r>  -19.1415    1.0000 </r>
       <r>   -0.1768    1.0000 </r>
       <r>   -0.1767    1.0000 </r>
       <r>   -0.1767    1.0000 </r>
       <r>    1.4196    1.0000 </r>
       <r>    1.4196    1.0000 </r>
       <r>    1.4196    1.0000 </r>
       <r>    1.7893    1.0000 </r>
       <r>    1.7893    1.0000 </r>
       <r>    2.7660    1.0000 </r>
       <r>   18.6377    0.0000 </r>
       <r>   21.4950    0.0000 </r>
       <r>   21.4950    0.0000 </r>
       <r>   21.4950    0.0000 </r>
      </set>
      <set comment="kpoint 2">
       <r>  -19.1004    1.0000 </r>
       <r>   -1.1694    1.0000 </r>
       <r>   -0.7014    1.0000 </r>
       <r>   -0.7014    1.0000 </r>
       <r>    1.6192    1.0000 </r>
       <r>    1.6192    1.0000 </r>
       <r>    1.6309    1.0000 </r>
       <r>    2.4041    1.0000 </r>
       <r>    2.4041    1.0000 </r>
       <r>    4.2036    0.0000 </r>
       <r>   15.4056    0.0000 </r>
       <r>   18.8268    0.0000 </r>
       <r>   18.8269    0.0000 </r>
       <r>   20.1011    0.0000 </r>
      </set>
      <set comment="kpoint 3">
       <r>  -19.0121    1.0000 </r>
       <r>   -2.1171    1.0000 </r>
       <r>   -1.2597    1.0000 </r>
       <r>   -1.2597    1.0000 </r>
       <r>    1.9377    1.0000 </r>
       <r>    1.9378    1.0000 </r>
       <r>    1.9953    1.0000 </r>
       <r>    3.1527    0.9960 </r>
       <r>    3.1527    0.9960 </r>
       <r>    6.9526    0.0000 </r>
       <r>   10.7709    0.0000 </r>
       <r>   16.6933    0.0000 </r>
       <r>   16.6933    0.0000 </r>
       <r>   21.3032    0.0000 </r>
      </set>
      <set comment="kpoint 4">
       <r>  -19.0849    1.0000 </r>
       <r>   -1.4374    1.0000 </r>
       <r>   -0.4389    1.0000 </r>
       <r>   -0.4389    1.0000 </r>
       <r>    1.2127    1.0000 </r>
       <r>    1.8651    1.0000 </r>
       <r>    1.8651    1.0000 </r>
       <r>    1.8930    1.0000 </r>
       <r>    2.1963    1.0000 </r>
       <r>    4.9019    0.0000 </r>
       <r>   16.7114    0.0000 </r>
       <r>   17.2314    0.0000 </r>
       <r>   17.7905    0.0000 </r>
       <r>   17.7905    0.0000 </r>
      </set>
      <set comment="kpoint 5">
       <r>  -19.0082    1.0000 </r>
       <r>   -1.7495    1.0000 </r>
       <r>   -1.0449    1.0000 </r>
       <r>   -0.8706    1.0000 </r>
       <r>    1.3855    1.0000 </r>
       <r>    2.0533    1.0000 </r>
       <r>    2.0981    1.0000 </r>
       <r>    2.5179    1.0000 </r>
       <r>    2.6158    1.0000 </r>
       <r>    6.9363    0.0000 </r>
       <r>   12.5145    0.0000 </r>
       <r>   14.9862    0.0000 </r>
       <r>   16.5375    0.0000 </r>
       <r>   19.6637    0.0000 </r>
      </set>
      <set comment="kpoint 6">
       <r>  -18.9977    1.0000 </r>
       <r>   -1.9450    1.0000 </r>
       <r>   -1.2493    1.0000 </r>
       <r>   -1.2474    1.0000 </r>
       <r>    1.8406    1.0000 </r>
       <r>    1.9981    1.0000 </r>
       <r>    2.0267    1.0000 </r>
       <r>    2.5836    1.0000 </r>
       <r>    3.1841    0.9612 </r>
       <r>    8.9349    0.0000 </r>
       <r>    9.9229    0.0000 </r>
       <r>   13.7881    0.0000 </r>
       <r>   16.4203    0.0000 </r>
       <r>   21.2843    0.0000 </r>
      </set>
      <set comment="kpoint 7">
       <r>  -19.0350    1.0000 </r>
       <r>   -1.7165    1.0000 </r>
       <r>   -1.1717    1.0000 </r>
       <r>   -0.7860    1.0000 </r>
       <r>    1.7203    1.0000 </r>
       <r>    1.7810    1.0000 </r>
       <r>    1.9552    1.0000 </r>
       <r>    2.1750    1.0000 </r>
       <r>    3.1259    0.9997 </r>
       <r>    6.0854    0.0000 </r>
       <r>   14.0257    0.0000 </r>
       <r>   14.1426    0.0000 </r>
       <r>   17.9038    0.0000 </r>
       <r>   22.2832    0.0000 </r>
      </set>
      <set comment="kpoint 8">
       <r>  -18.9939    1.0000 </r>
       <r>   -1.5390    1.0000 </r>
       <r>   -0.5535    1.0000 </r>
       <r>   -0.5534    1.0000 </r>
       <r>    0.8922    1.0000 </r>
       <r>    1.9555    1.0000 </r>
       <r>    2.0655    1.0000 </r>
       <r>    2.2077    1.0000 </r>
       <r>    2.2077    1.0000 </r>
       <r>    7.8484    0.0000 </r>
       <r>   11.6136    0.0000 </r>
       <r>   16.1115    0.0000 </r>
       <r>   16.1115    0.0000 </r>
       <r>   16.3294    0.0000 </r>
      </set>
      <set comment="kpoint 9">
       <r>  -19.0053    1.0000 </r>
       <r>   -1.3981    1.0000 </r>
       <r>   -1.1673    1.0000 </r>
       <r>   -0.8882    1.0000 </r>
       <r>    1.2421    1.0000 </r>
       <r>    2.0181    1.0000 </r>
       <r>    2.1613    1.0000 </r>
       <r>    2.1735    1.0000 </r>
       <r>    2.5622    1.0000 </r>
       <r>    9.2057    0.0000 </r>
       <r>   10.8226    0.0000 </r>
       <r>   12.7919    0.0000 </r>
       <r>   16.0140    0.0000 </r>
       <r>   18.7480    0.0000 </r>
      </set>
      <set comment="kpoint 10">
       <r>  -18.9924    1.0000 </r>
       <r>   -1.5770    1.0000 </r>
       <r>   -1.2046    1.0000 </r>
       <r>   -1.0233    1.0000 </r>
       <r>    1.5799    1.0000 </r>
       <r>    1.9044    1.0000 </r>
       <r>    2.1115    1.0000 </r>
       <r>    2.1935    1.0000 </r>
       <r>    2.8925    1.0000 </r>
       <r>    8.8738    0.0000 </r>
       <r>   11.5858    0.0000 </r>
       <r>   12.6369    0.0000 </r>
       <r>   15.1378    0.0000 </r>
       <r>   21.0228    0.0000 </r>
      </set>
     </set>
    </set>
   </array>
  </eigenvalues>
  <separator name="orbital magnetization" >
   <v name="MAGDIPOLOUT">      0.00000000      0.00000000      0.00000000</v>
  </separator>
  <dos>
   <i name="efermi">      3.24646396 </i>
   <total>
    <array>
     <dimension dim="1">gridpoints</dimension>
     <dimension dim="2">spin</dimension>
     <field>energy</field>
     <field>total</field>
     <field>integrated</field>
     <set>
      <set comment="spin 1">
       <r>   -21.2127     0.0000     0.0000 </r>
       <r>   -21.0609     0.0000     0.0000 </r>
       <r>   -20.9090     0.0000     0.0000 </r>
       <r>   -20.7571     0.0000     0.0000 </r>
       <r>   -20.6052     0.0000     0.0000 </r>
       <r>   -20.4533     0.0000     0.0000 </r>
       <r>   -20.3014     0.0000     0.0000 </r>
       <r>   -20.1495     0.0000     0.0000 </r>
       <r>   -19.9976     0.0000     0.0000 </r>
       <r>   -19.8457     0.0000     0.0000 </r>
       <r>   -19.6938     0.0000     0.0000 </r>
       <r>   -19.5419     0.0000     0.0000 </r>
       <r>   -19.3901     0.0000     0.0000 </r>
       <r>   -19.2382     0.0004     0.0001 </r>
       <r>   -19.0863     1.1420     0.1735 </r>
       <r>   -18.9344    11.6860     1.9485 </r>
       <r>   -18.7825     0.3390     2.0000 </r>
       <r>   -18.6306     0.0000     2.0000 </r>
       <r>   -18.4787     0.0000     2.0000 </r>
       <r>   -18.3268     0.0000     2.0000 </r>
       <r>   -18.1749     0.0000     2.0000 </r>
       <r>   -18.0230     0.0000     2.0000 </r>
       <r>   -17.8712     0.0000     2.0000 </r>
       <r>   -17.7193     0.0000     2.0000 </r>
       <r>   -17.5674     0.0000     2.0000 </r>
       <r>   -17.4155     0.0000     2.0000 </r>
       <r>   -17.2636     0.0000     2.0000 </r>
       <r>   -17.1117     0.0000     2.0000 </r>
       <r>   -16.9598     0.0000     2.0000 </r>
       <r>   -16.8079     0.0000     2.0000 </r>
       <r>   -16.6560     0.0000     2.0000 </r>
       <r>   -16.5041     0.0000     2.0000 </r>
       <r>   -16.3522     0.0000     2.0000 </r>
       <r>   -16.2004     0.0000     2.0000 </r>
       <r>   -16.0485     0.0000     2.0000 </r>
       <r>   -15.8966     0.0000     2.0000 </r>
       <r>   -15.7447     0.0000     2.0000 </r>
       <r>   -15.5928     0.0000     2.0000 </r>
       <r>   -15.4409     0.0000     2.0000 </r>
       <r>   -15.2890     0.0000     2.0000 </r>
       <r>   -15.1371     0.0000     2.0000 </r>
       <r>   -14.9852     0.0000     2.0000 </r>
       <r>   -14.8333     0.0000     2.0000 </r>
       <r>   -14.6814     0.0000     2.0000 </r>
       <r>   -14.5296     0.0000     2.0000 </r>
       <r>   -14.3777     0.0000     2.0000 </r>
       <r>   -14.2258     0.0000     2.0000 </r>
       <r>   -14.0739     0.0000     2.0000 </r>
       <r>   -13.9220     0.0000     2.0000 </r>
       <r>   -13.7701     0.0000     2.0000 </r>
       <r>   -13.6182     0.0000     2.0000 </r>
       <r>   -13.4663     0.0000     2.0000 </r>
       <r>   -13.3144     0.0000     2.0000 </r>
       <r>   -13.1625     0.0000     2.0000 </r>
       <r>   -13.0107     0.0000     2.0000 </r>
       <r>   -12.8588     0.0000     2.0000 </r>
       <r>   -12.7069     0.0000     2.0000 </r>
       <r>   -12.5550     0.0000     2.0000 </r>
       <r>   -12.4031     0.0000     2.0000 </r>
       <r>   -12.2512     0.0000     2.0000 </r>
       <r>   -12.0993     0.0000     2.0000 </r>
       <r>   -11.9474     0.0000     2.0000 </r>
       <r>   -11.7955     0.0000     2.0000 </r>
       <r>   -11.6436     0.0000     2.0000 </r>
       <r>   -11.4917     0.0000     2.0000 </r>
       <r>   -11.3399     0.0000     2.0000 </r>
       <r>   -11.1880     0.0000     2.0000 </r>
       <r>   -11.0361     0.0000     2.0000 </r>
       <r>   -10.8842     0.0000     2.0000 </r>
       <r>   -10.7323     0.0000     2.0000 </r>
       <r>   -10.5804     0.0000     2.0000 </r>
       <r>   -10.4285     0.0000     2.0000 </r>
       <r>   -10.2766     0.0000     2.0000 </r>
       <r>   -10.1247     0.0000     2.0000 </r>
       <r>    -9.9728     0.0000     2.0000 </r>
       <r>    -9.8209     0.0000     2.0000 </r>
       <r>    -9.6691     0.0000     2.0000 </r>
       <r>    -9.5172     0.0000     2.0000 </r>
       <r>    -9.3653     0.0000     2.0000 </r>
       <r>    -9.2134     0.0000     2.0000 </r>
       <r>    -9.0615     0.0000     2.0000 </r>
       <r>    -8.9096     0.0000     2.0000 </r>
       <r>    -8.7577     0.0000     2.0000 </r>
       <r>    -8.6058     0.0000     2.0000 </r>
       <r>    -8.4539     0.0000     2.0000 </r>
       <r>    -8.3020     0.0000     2.0000 </r>
       <r>    -8.1502     0.0000     2.0000 </r>
       <r>    -7.9983     0.0000     2.0000 </r>
       <r>    -7.8464     0.0000     2.0000 </r>
       <r>    -7.6945     0.0000     2.0000 </r>
       <r>    -7.5426     0.0000     2.0000 </r>
       <r>    -7.3907     0.0000     2.0000 </r>
       <r>    -7.2388     0.0000     2.0000 </r>
       <r>    -7.0869     0.0000     2.0000 </r>
       <r>    -6.9350     0.0000     2.0000 </r>
       <r>    -6.7831     0.0000     2.0000 </r>
       <r>    -6.6312     0.0000     2.0000 </r>
       <r>    -6.4794     0.0000     2.0000 </r>
       <r>    -6.3275     0.0000     2.0000 </r>
       <r>    -6.1756     0.0000     2.0000 </r>
       <r>    -6.0237     0.0000     2.0000 </r>
       <r>    -5.8718     0.0000     2.0000 </r>
       <r>    -5.7199     0.0000     2.0000 </r>
       <r>    -5.5680     0.0000     2.0000 </r>
       <r>    -5.4161     0.0000     2.0000 </r>
       <r>    -5.2642     0.0000     2.0000 </r>
       <r>    -5.1123     0.0000     2.0000 </r>
       <r>    -4.9604     0.0000     2.0000 </r>
       <r>    -4.8086     0.0000     2.0000 </r>
       <r>    -4.6567     0.0000     2.0000 </r>
       <r>    -4.5048     0.0000     2.0000 </r>
       <r>    -4.3529     0.0000     2.0000 </r>
       <r>    -4.2010     0.0000     2.0000 </r>
       <r>    -4.0491     0.0000     2.0000 </r>
       <r>    -3.8972     0.0000     2.0000 </r>
       <r>    -3.7453     0.0000     2.0000 </r>
       <r>    -3.5934     0.0000     2.0000 </r>
       <r>    -3.4415     0.0000     2.0000 </r>
       <r>    -3.2897     0.0000     2.0000 </r>
       <r>    -3.1378     0.0000     2.0000 </r>
       <r>    -2.9859     0.0000     2.0000 </r>
       <r>    -2.8340     0.0000     2.0000 </r>
       <r>    -2.6821     0.0000     2.0000 </r>
       <r>    -2.5302     0.0000     2.0000 </r>
       <r>    -2.3783     0.0000     2.0000 </r>
       <r>    -2.2264     0.0008     2.0001 </r>
       <r>    -2.0745     0.7460     2.1134 </r>
       <r>    -1.9226     1.9579     2.4108 </r>
       <r>    -1.7707     1.4385     2.6293 </r>
       <r>    -1.6189     3.3230     3.1340 </r>
       <r>    -1.4670     3.0015     3.5899 </r>
       <r>    -1.3151     1.9903     3.8922 </r>
       <r>    -1.1632    10.6042     5.5029 </r>
       <r>    -1.0113     5.4940     6.3374 </r>
       <r>    -0.8594     3.9646     6.9396 </r>
       <r>    -0.7075     3.1624     7.4199 </r>
       <r>    -0.5556     1.5766     7.6594 </r>
       <r>    -0.4037     1.7243     7.9213 </r>
       <r>    -0.2518     0.2075     7.9528 </r>
       <r>    -0.0999     0.3060     7.9993 </r>
       <r>     0.0519     0.0047     8.0000 </r>
       <r>     0.2038     0.0000     8.0000 </r>
       <r>     0.3557     0.0000     8.0000 </r>
       <r>     0.5076     0.0000     8.0000 </r>
       <r>     0.6595     0.0000     8.0000 </r>
       <r>     0.8114     0.0070     8.0011 </r>
       <r>     0.9633     0.6110     8.0939 </r>
       <r>     1.1152     0.0161     8.0963 </r>
       <r>     1.2671     1.5524     8.3321 </r>
       <r>     1.4190     2.5916     8.7257 </r>
       <r>     1.5708     1.7838     8.9967 </r>
       <r>     1.7227     4.5962     9.6948 </r>
       <r>     1.8746     5.6520    10.5533 </r>
       <r>     2.0265    12.2569    12.4150 </r>
       <r>     2.1784    13.4580    14.4591 </r>
       <r>     2.3303     4.8027    15.1886 </r>
       <r>     2.4822     2.0480    15.4997 </r>
       <r>     2.6341     7.4699    16.6343 </r>
       <r>     2.7860     1.0640    16.7959 </r>
       <r>     2.9379     2.3033    17.1458 </r>
       <r>     3.0898     0.5180    17.2244 </r>
       <r>     3.2416     5.0698    17.9945 </r>
       <r>     3.3935     0.1415    18.0160 </r>
       <r>     3.5454     0.0000    18.0160 </r>
       <r>     3.6973     0.0000    18.0160 </r>
       <r>     3.8492     0.0000    18.0160 </r>
       <r>     4.0011     0.0000    18.0160 </r>
       <r>     4.1530     0.0640    18.0257 </r>
       <r>     4.3049     0.7769    18.1437 </r>
       <r>     4.4568     0.0018    18.1440 </r>
       <r>     4.6087     0.0000    18.1440 </r>
       <r>     4.7606     0.0000    18.1440 </r>
       <r>     4.9124     0.3900    18.2032 </r>
       <r>     5.0643     0.2420    18.2400 </r>
       <r>     5.2162     0.0000    18.2400 </r>
       <r>     5.3681     0.0000    18.2400 </r>
       <r>     5.5200     0.0000    18.2400 </r>
       <r>     5.6719     0.0000    18.2400 </r>
       <r>     5.8238     0.0000    18.2400 </r>
       <r>     5.9757     0.0012    18.2402 </r>
       <r>     6.1276     1.1153    18.4096 </r>
       <r>     6.2795     0.1476    18.4320 </r>
       <r>     6.4313     0.0000    18.4320 </r>
       <r>     6.5832     0.0000    18.4320 </r>
       <r>     6.7351     0.0000    18.4320 </r>
       <r>     6.8870     0.2328    18.4674 </r>
       <r>     7.0389     3.1272    18.9423 </r>
       <r>     7.1908     0.0109    18.9440 </r>
       <r>     7.3427     0.0000    18.9440 </r>
       <r>     7.4946     0.0000    18.9440 </r>
       <r>     7.6465     0.0000    18.9440 </r>
       <r>     7.7984     0.0497    18.9516 </r>
       <r>     7.9503     0.5811    19.0398 </r>
       <r>     8.1021     0.0012    19.0400 </r>
       <r>     8.2540     0.0000    19.0400 </r>
       <r>     8.4059     0.0000    19.0400 </r>
       <r>     8.5578     0.0000    19.0400 </r>
       <r>     8.7097     0.0000    19.0400 </r>
       <r>     8.8616     0.9722    19.1877 </r>
       <r>     9.0135     4.0509    19.8030 </r>
       <r>     9.1654     0.1936    19.8324 </r>
       <r>     9.3173     1.1027    19.9998 </r>
       <r>     9.4692     0.0010    20.0000 </r>
       <r>     9.6210     0.0000    20.0000 </r>
       <r>     9.7729     0.0000    20.0000 </r>
       <r>     9.9248     1.3201    20.2005 </r>
       <r>    10.0767     1.2080    20.3840 </r>
       <r>    10.2286     0.0000    20.3840 </r>
       <r>    10.3805     0.0000    20.3840 </r>
       <r>    10.5324     0.0000    20.3840 </r>
       <r>    10.6843     0.0061    20.3849 </r>
       <r>    10.8362     1.6309    20.6327 </r>
       <r>    10.9881     0.4697    20.7040 </r>
       <r>    11.1400     0.0000    20.7040 </r>
       <r>    11.2918     0.0000    20.7040 </r>
       <r>    11.4437     0.0001    20.7040 </r>
       <r>    11.5956     1.7347    20.9675 </r>
       <r>    11.7475     1.4253    21.1840 </r>
       <r>    11.8994     0.0001    21.1840 </r>
       <r>    12.0513     0.0000    21.1840 </r>
       <r>    12.2032     0.0000    21.1840 </r>
       <r>    12.3551     0.0000    21.1840 </r>
       <r>    12.5070     1.0503    21.3435 </r>
       <r>    12.6589     3.3306    21.8494 </r>
       <r>    12.8108     1.5639    22.0870 </r>
       <r>    12.9626     0.3756    22.1440 </r>
       <r>    13.1145     0.0000    22.1440 </r>
       <r>    13.2664     0.0000    22.1440 </r>
       <r>    13.4183     0.0000    22.1440 </r>
       <r>    13.5702     0.0000    22.1440 </r>
       <r>    13.7221     0.0784    22.1559 </r>
       <r>    13.8740     2.4307    22.5251 </r>
       <r>    14.0259     0.6545    22.6245 </r>
       <r>    14.1778     1.6909    22.8813 </r>
       <r>    14.3297     0.2019    22.9120 </r>
       <r>    14.4815     0.0000    22.9120 </r>
       <r>    14.6334     0.0000    22.9120 </r>
       <r>    14.7853     0.0000    22.9120 </r>
       <r>    14.9372     0.2096    22.9438 </r>
       <r>    15.0891     2.5271    23.3277 </r>
       <r>    15.2410     2.3152    23.6793 </r>
       <r>    15.3929     0.3074    23.7260 </r>
       <r>    15.5448     0.5397    23.8080 </r>
       <r>    15.6967     0.0000    23.8080 </r>
       <r>    15.8486     0.0000    23.8080 </r>
       <r>    16.0005     0.4439    23.8754 </r>
       <r>    16.1523     1.9274    24.1682 </r>
       <r>    16.3042     0.3086    24.2150 </r>
       <r>    16.4561     2.6421    24.6164 </r>
       <r>    16.6080     2.8507    25.0494 </r>
       <r>    16.7599     2.2572    25.3922 </r>
       <r>    16.9118     0.1039    25.4080 </r>
       <r>    17.0637     0.0000    25.4080 </r>
       <r>    17.2156     0.2070    25.4394 </r>
       <r>    17.3675     0.4250    25.5040 </r>
       <r>    17.5194     0.0000    25.5040 </r>
       <r>    17.6713     0.0005    25.5041 </r>
       <r>    17.8231     1.0530    25.6640 </r>
       <r>    17.9750     1.4468    25.8838 </r>
       <r>    18.1269     0.0278    25.8880 </r>
       <r>    18.2788     0.0000    25.8880 </r>
       <r>    18.4307     0.0000    25.8880 </r>
       <r>    18.5826     0.0063    25.8890 </r>
       <r>    18.7345     0.5498    25.9725 </r>
       <r>    18.8864     2.4210    26.3402 </r>
       <r>    19.0383     0.0778    26.3520 </r>
       <r>    19.1902     0.0000    26.3520 </r>
       <r>    19.3420     0.0000    26.3520 </r>
       <r>    19.4939     0.0000    26.3520 </r>
       <r>    19.6458     0.7755    26.4698 </r>
       <r>    19.7977     1.7525    26.7360 </r>
       <r>    19.9496     0.0002    26.7360 </r>
       <r>    20.1015     0.4250    26.8006 </r>
       <r>    20.2534     0.4177    26.8640 </r>
       <r>    20.4053     0.0000    26.8640 </r>
       <r>    20.5572     0.0000    26.8640 </r>
       <r>    20.7091     0.0000    26.8640 </r>
       <r>    20.8610     0.0000    26.8640 </r>
       <r>    21.0128     0.9826    27.0133 </r>
       <r>    21.1647     1.5464    27.2481 </r>
       <r>    21.3166     2.6178    27.6458 </r>
       <r>    21.4685     0.8238    27.7709 </r>
       <r>    21.6204     0.2443    27.8080 </r>
       <r>    21.7723     0.0001    27.8080 </r>
       <r>    21.9242     0.0000    27.8080 </r>
       <r>    22.0761     0.0000    27.8080 </r>
       <r>    22.2280     0.0747    27.8194 </r>
       <r>    22.3799     1.1854    27.9994 </r>
       <r>    22.5318     0.0040    28.0000 </r>
       <r>    22.6836     0.0000    28.0000 </r>
       <r>    22.8355     0.0000    28.0000 </r>
       <r>    22.9874     0.0000    28.0000 </r>
       <r>    23.1393     0.0000    28.0000 </r>
       <r>    23.2912     0.0000    28.0000 </r>
       <r>    23.4431     0.0000    28.0000 </r>
       <r>    23.5950     0.0000    28.0000 </r>
       <r>    23.7469     0.0000    28.0000 </r>
       <r>    23.8988     0.0000    28.0000 </r>
       <r>    24.0507     0.0000    28.0000 </r>
       <r>    24.2025     0.0000    28.0000 </r>
       <r>    24.3544     0.0000    28.0000 </r>
      </set>
     </set>
    </array>
   </total>
   <partial>
    <array>
     <dimension dim="1">gridpoints</dimension>
     <dimension dim="2">spin</dimension>
     <dimension dim="3">ion</dimension>
     <field>energy</field>
     <field>    s</field>
     <field>   py</field>
     <field>   pz</field>
     <field>   px</field>
     <field>  dxy</field>
     <field>  dyz</field>
     <field>  dz2</field>
     <field>  dxz</field>
     <field>x2-y2</field>
     <set>
      <set comment="ion 1">
       <set comment="spin 1">
        <r>   -21.2127     0.0000     0.0000     0.0000     0.0000     0.0000     0.0000     0.0000     0.0000     0.0000 </r>
        <r>   -21.0609     0.0000     0.0000     0.0000     0.0000     0.0000     0.0000     0.0000     0.0000     0.0000 </r>
        <r>   -20.9090     0.0000     0.0000     0.0000     0.0000     0.0000     0.0000     0.0000     0.0000     0.0000 </r>
        <r>   -20.7571     0.0000     0.0000     0.0000     0.0000     0.0000     0.0000     0.0000     0.0000     0.0000 </r>
        <r>   -20.6052     0.0000     0.0000     0.0000     0.0000     0.0000     0.0000     0.0000     0.0000     0.0000 </r>
        <r>   -20.4533     0.0000     0.0000     0.0000     0.0000     0.0000     0.0000     0.0000     0.0000     0.0000 </r>
        <r>   -20.3014     0.0000     0.0000     0.0000     0.0000     0.0000     0.0000     0.0000     0.0000     0.0000 </r>
        <r>   -20.1495     0.0000     0.0000     0.0000     0.0000     0.0000     0.0000     0.0000     0.0000     0.0000 </r>
        <r>   -19.9976     0.0000     0.0000     0.0000     0.0000     0.0000     0.0000     0.0000     0.0000     0.0000 </r>
        <r>   -19.8457     0.0000     0.0000     0.0000     0.0000     0.0000     0.0000     0.0000     0.0000     0.0000 </r>
        <r>   -19.6938     0.0000     0.0000     0.0000     0.0000     0.0000     0.0000     0.0000     0.0000     0.0000 </r>
        <r>   -19.5419     0.0000     0.0000     0.0000     0.0000     0.0000     0.0000     0.0000     0.0000     0.0000 </r>
        <r>   -19.3901     0.0000     0.0000     0.0000     0.0000     0.0000     0.0000     0.0000     0.0000     0.0000 </r>
        <r>   -19.2382     0.0000     0.0000     0.0000     0.0000     0.0000     0.0000     0.0000     0.0000     0.0000 </r>
        <r>   -19.0863     0.0081     0.0005     0.0000     0.0016     0.0005     0.0000     0.0002     0.0000     0.0001 </r>
        <r>   -18.9344     0.0176     0.0070     0.0019     0.0233     0.0254     0.0012     0.0097     0.0006     0.0031 </r>
        <r>   -18.7825     0.0002     0.0001     0.0001     0.0006     0.0009     0.0001     0.0003     0.0000     0.0001 </r>
        <r>   -18.6306     0.0000     0.0000     0.0000     0.0000     0.0000     0.0000     0.0000     0.0000     0.0000 </r>
        <r>   -18.4787     0.0000     0.0000     0.0000     0.0000     0.0000     0.0000     0.0000     0.0000     0.0000 </r>
        <r>   -18.3268     0.0000     0.0000     0.0000     0.0000     0.0000     0.0000     0.0000     0.0000     0.0000 </r>
        <r>   -18.1749     0.0000     0.0000     0.0000     0.0000     0.0000     0.0000     0.0000     0.0000     0.0000 </r>
        <r>   -18.0230     0.0000     0.0000     0.0000     0.0000     0.0000     0.0000     0.0000     0.0000     0.0000 </r>
        <r>   -17.8712     0.0000     0.0000     0.0000     0.0000     0.0000     0.0000     0.0000     0.0000     0.0000 </r>
        <r>   -17.7193     0.0000     0.0000     0.0000     0.0000     0.0000     0.0000     0.0000     0.0000     0.0000 </r>
        <r>   -17.5674     0.0000     0.0000     0.0000     0.0000     0.0000     0.0000     0.0000     0.0000     0.0000 </r>
        <r>   -17.4155     0.0000     0.0000     0.0000     0.0000     0.0000     0.0000     0.0000     0.0000     0.0000 </r>
        <r>   -17.2636     0.0000     0.0000     0.0000     0.0000     0.0000     0.0000     0.0000     0.0000     0.0000 </r>
        <r>   -17.1117     0.0000     0.0000     0.0000     0.0000     0.0000     0.0000     0.0000     0.0000     0.0000 </r>
        <r>   -16.9598     0.0000     0.0000     0.0000     0.0000     0.0000     0.0000     0.0000     0.0000     0.0000 </r>
        <r>   -16.8079     0.0000     0.0000     0.0000     0.0000     0.0000     0.0000     0.0000     0.0000     0.0000 </r>
        <r>   -16.6560     0.0000     0.0000     0.0000     0.0000     0.0000     0.0000     0.0000     0.0000     0.0000 </r>
        <r>   -16.5041     0.0000     0.0000     0.0000     0.0000     0.0000     0.0000     0.0000     0.0000     0.0000 </r>
        <r>   -16.3522     0.0000     0.0000     0.0000     0.0000     0.0000     0.0000     0.0000     0.0000     0.0000 </r>
        <r>   -16.2004     0.0000     0.0000     0.0000     0.0000     0.0000     0.0000     0.0000     0.0000     0.0000 </r>
        <r>   -16.0485     0.0000     0.0000     0.0000     0.0000     0.0000     0.0000     0.0000     0.0000     0.0000 </r>
        <r>   -15.8966     0.0000     0.0000     0.0000     0.0000     0.0000     0.0000     0.0000     0.0000     0.0000 </r>
        <r>   -15.7447     0.0000     0.0000     0.0000     0.0000     0.0000     0.0000     0.0000     0.0000     0.0000 </r>
        <r>   -15.5928     0.0000     0.0000     0.0000     0.0000     0.0000     0.0000     0.0000     0.0000     0.0000 </r>
        <r>   -15.4409     0.0000     0.0000     0.0000     0.0000     0.0000     0.0000     0.0000     0.0000     0.0000 </r>
        <r>   -15.2890     0.0000     0.0000     0.0000     0.0000     0.0000     0.0000     0.0000     0.0000     0.0000 </r>
        <r>   -15.1371     0.0000     0.0000     0.0000     0.0000     0.0000     0.0000     0.0000     0.0000     0.0000 </r>
        <r>   -14.9852     0.0000     0.0000     0.0000     0.0000     0.0000     0.0000     0.0000     0.0000     0.0000 </r>
        <r>   -14.8333     0.0000     0.0000     0.0000     0.0000     0.0000     0.0000     0.0000     0.0000     0.0000 </r>
        <r>   -14.6814     0.0000     0.0000     0.0000     0.0000     0.0000     0.0000     0.0000     0.0000     0.0000 </r>
        <r>   -14.5296     0.0000     0.0000     0.0000     0.0000     0.0000     0.0000     0.0000     0.0000     0.0000 </r>
        <r>   -14.3777     0.0000     0.0000     0.0000     0.0000     0.0000     0.0000     0.0000     0.0000     0.0000 </r>
        <r>   -14.2258     0.0000     0.0000     0.0000     0.0000     0.0000     0.0000     0.0000     0.0000     0.0000 </r>
        <r>   -14.0739     0.0000     0.0000     0.0000     0.0000     0.0000     0.0000     0.0000     0.0000     0.0000 </r>
        <r>   -13.9220     0.0000     0.0000     0.0000     0.0000     0.0000     0.0000     0.0000     0.0000     0.0000 </r>
        <r>   -13.7701     0.0000     0.0000     0.0000     0.0000     0.0000     0.0000     0.0000     0.0000     0.0000 </r>
        <r>   -13.6182     0.0000     0.0000     0.0000     0.0000     0.0000     0.0000     0.0000     0.0000     0.0000 </r>
        <r>   -13.4663     0.0000     0.0000     0.0000     0.0000     0.0000     0.0000     0.0000     0.0000     0.0000 </r>
        <r>   -13.3144     0.0000     0.0000     0.0000     0.0000     0.0000     0.0000     0.0000     0.0000     0.0000 </r>
        <r>   -13.1625     0.0000     0.0000     0.0000     0.0000     0.0000     0.0000     0.0000     0.0000     0.0000 </r>
        <r>   -13.0107     0.0000     0.0000     0.0000     0.0000     0.0000     0.0000     0.0000     0.0000     0.0000 </r>
        <r>   -12.8588     0.0000     0.0000     0.0000     0.0000     0.0000     0.0000     0.0000     0.0000     0.0000 </r>
        <r>   -12.7069     0.0000     0.0000     0.0000     0.0000     0.0000     0.0000     0.0000     0.0000     0.0000 </r>
        <r>   -12.5550     0.0000     0.0000     0.0000     0.0000     0.0000     0.0000     0.0000     0.0000     0.0000 </r>
        <r>   -12.4031     0.0000     0.0000     0.0000     0.0000     0.0000     0.0000     0.0000     0.0000     0.0000 </r>
        <r>   -12.2512     0.0000     0.0000     0.0000     0.0000     0.0000     0.0000     0.0000     0.0000     0.0000 </r>
        <r>   -12.0993     0.0000     0.0000     0.0000     0.0000     0.0000     0.0000     0.0000     0.0000     0.0000 </r>
        <r>   -11.9474     0.0000     0.0000     0.0000     0.0000     0.0000     0.0000     0.0000     0.0000     0.0000 </r>
        <r>   -11.7955     0.0000     0.0000     0.0000     0.0000     0.0000     0.0000     0.0000     0.0000     0.0000 </r>
        <r>   -11.6436     0.0000     0.0000     0.0000     0.0000     0.0000     0.0000     0.0000     0.0000     0.0000 </r>
        <r>   -11.4917     0.0000     0.0000     0.0000     0.0000     0.0000     0.0000     0.0000     0.0000     0.0000 </r>
        <r>   -11.3399     0.0000     0.0000     0.0000     0.0000     0.0000     0.0000     0.0000     0.0000     0.0000 </r>
        <r>   -11.1880     0.0000     0.0000     0.0000     0.0000     0.0000     0.0000     0.0000     0.0000     0.0000 </r>
        <r>   -11.0361     0.0000     0.0000     0.0000     0.0000     0.0000     0.0000     0.0000     0.0000     0.0000 </r>
        <r>   -10.8842     0.0000     0.0000     0.0000     0.0000     0.0000     0.0000     0.0000     0.0000     0.0000 </r>
        <r>   -10.7323     0.0000     0.0000     0.0000     0.0000     0.0000     0.0000     0.0000     0.0000     0.0000 </r>
        <r>   -10.5804     0.0000     0.0000     0.0000     0.0000     0.0000     0.0000     0.0000     0.0000     0.0000 </r>
        <r>   -10.4285     0.0000     0.0000     0.0000     0.0000     0.0000     0.0000     0.0000     0.0000     0.0000 </r>
        <r>   -10.2766     0.0000     0.0000     0.0000     0.0000     0.0000     0.0000     0.0000     0.0000     0.0000 </r>
        <r>   -10.1247     0.0000     0.0000     0.0000     0.0000     0.0000     0.0000     0.0000     0.0000     0.0000 </r>
        <r>    -9.9728     0.0000     0.0000     0.0000     0.0000     0.0000     0.0000     0.0000     0.0000     0.0000 </r>
        <r>    -9.8209     0.0000     0.0000     0.0000     0.0000     0.0000     0.0000     0.0000     0.0000     0.0000 </r>
        <r>    -9.6691     0.0000     0.0000     0.0000     0.0000     0.0000     0.0000     0.0000     0.0000     0.0000 </r>
        <r>    -9.5172     0.0000     0.0000     0.0000     0.0000     0.0000     0.0000     0.0000     0.0000     0.0000 </r>
        <r>    -9.3653     0.0000     0.0000     0.0000     0.0000     0.0000     0.0000     0.0000     0.0000     0.0000 </r>
        <r>    -9.2134     0.0000     0.0000     0.0000     0.0000     0.0000     0.0000     0.0000     0.0000     0.0000 </r>
        <r>    -9.0615     0.0000     0.0000     0.0000     0.0000     0.0000     0.0000     0.0000     0.0000     0.0000 </r>
        <r>    -8.9096     0.0000     0.0000     0.0000     0.0000     0.0000     0.0000     0.0000     0.0000     0.0000 </r>
        <r>    -8.7577     0.0000     0.0000     0.0000     0.0000     0.0000     0.0000     0.0000     0.0000     0.0000 </r>
        <r>    -8.6058     0.0000     0.0000     0.0000     0.0000     0.0000     0.0000     0.0000     0.0000     0.0000 </r>
        <r>    -8.4539     0.0000     0.0000     0.0000     0.0000     0.0000     0.0000     0.0000     0.0000     0.0000 </r>
        <r>    -8.3020     0.0000     0.0000     0.0000     0.0000     0.0000     0.0000     0.0000     0.0000     0.0000 </r>
        <r>    -8.1502     0.0000     0.0000     0.0000     0.0000     0.0000     0.0000     0.0000     0.0000     0.0000 </r>
        <r>    -7.9983     0.0000     0.0000     0.0000     0.0000     0.0000     0.0000     0.0000     0.0000     0.0000 </r>
        <r>    -7.8464     0.0000     0.0000     0.0000     0.0000     0.0000     0.0000     0.0000     0.0000     0.0000 </r>
        <r>    -7.6945     0.0000     0.0000     0.0000     0.0000     0.0000     0.0000     0.0000     0.0000     0.0000 </r>
        <r>    -7.5426     0.0000     0.0000     0.0000     0.0000     0.0000     0.0000     0.0000     0.0000     0.0000 </r>
        <r>    -7.3907     0.0000     0.0000     0.0000     0.0000     0.0000     0.0000     0.0000     0.0000     0.0000 </r>
        <r>    -7.2388     0.0000     0.0000     0.0000     0.0000     0.0000     0.0000     0.0000     0.0000     0.0000 </r>
        <r>    -7.0869     0.0000     0.0000     0.0000     0.0000     0.0000     0.0000     0.0000     0.0000     0.0000 </r>
        <r>    -6.9350     0.0000     0.0000     0.0000     0.0000     0.0000     0.0000     0.0000     0.0000     0.0000 </r>
        <r>    -6.7831     0.0000     0.0000     0.0000     0.0000     0.0000     0.0000     0.0000     0.0000     0.0000 </r>
        <r>    -6.6312     0.0000     0.0000     0.0000     0.0000     0.0000     0.0000     0.0000     0.0000     0.0000 </r>
        <r>    -6.4794     0.0000     0.0000     0.0000     0.0000     0.0000     0.0000     0.0000     0.0000     0.0000 </r>
        <r>    -6.3275     0.0000     0.0000     0.0000     0.0000     0.0000     0.0000     0.0000     0.0000     0.0000 </r>
        <r>    -6.1756     0.0000     0.0000     0.0000     0.0000     0.0000     0.0000     0.0000     0.0000     0.0000 </r>
        <r>    -6.0237     0.0000     0.0000     0.0000     0.0000     0.0000     0.0000     0.0000     0.0000     0.0000 </r>
        <r>    -5.8718     0.0000     0.0000     0.0000     0.0000     0.0000     0.0000     0.0000     0.0000     0.0000 </r>
        <r>    -5.7199     0.0000     0.0000     0.0000     0.0000     0.0000     0.0000     0.0000     0.0000     0.0000 </r>
        <r>    -5.5680     0.0000     0.0000     0.0000     0.0000     0.0000     0.0000     0.0000     0.0000     0.0000 </r>
        <r>    -5.4161     0.0000     0.0000     0.0000     0.0000     0.0000     0.0000     0.0000     0.0000     0.0000 </r>
        <r>    -5.2642     0.0000     0.0000     0.0000     0.0000     0.0000     0.0000     0.0000     0.0000     0.0000 </r>
        <r>    -5.1123     0.0000     0.0000     0.0000     0.0000     0.0000     0.0000     0.0000     0.0000     0.0000 </r>
        <r>    -4.9604     0.0000     0.0000     0.0000     0.0000     0.0000     0.0000     0.0000     0.0000     0.0000 </r>
        <r>    -4.8086     0.0000     0.0000     0.0000     0.0000     0.0000     0.0000     0.0000     0.0000     0.0000 </r>
        <r>    -4.6567     0.0000     0.0000     0.0000     0.0000     0.0000     0.0000     0.0000     0.0000     0.0000 </r>
        <r>    -4.5048     0.0000     0.0000     0.0000     0.0000     0.0000     0.0000     0.0000     0.0000     0.0000 </r>
        <r>    -4.3529     0.0000     0.0000     0.0000     0.0000     0.0000     0.0000     0.0000     0.0000     0.0000 </r>
        <r>    -4.2010     0.0000     0.0000     0.0000     0.0000     0.0000     0.0000     0.0000     0.0000     0.0000 </r>
        <r>    -4.0491     0.0000     0.0000     0.0000     0.0000     0.0000     0.0000     0.0000     0.0000     0.0000 </r>
        <r>    -3.8972     0.0000     0.0000     0.0000     0.0000     0.0000     0.0000     0.0000     0.0000     0.0000 </r>
        <r>    -3.7453     0.0000     0.0000     0.0000     0.0000     0.0000     0.0000     0.0000     0.0000     0.0000 </r>
        <r>    -3.5934     0.0000     0.0000     0.0000     0.0000     0.0000     0.0000     0.0000     0.0000     0.0000 </r>
        <r>    -3.4415     0.0000     0.0000     0.0000     0.0000     0.0000     0.0000     0.0000     0.0000     0.0000 </r>
        <r>    -3.2897     0.0000     0.0000     0.0000     0.0000     0.0000     0.0000     0.0000     0.0000     0.0000 </r>
        <r>    -3.1378     0.0000     0.0000     0.0000     0.0000     0.0000     0.0000     0.0000     0.0000     0.0000 </r>
        <r>    -2.9859     0.0000     0.0000     0.0000     0.0000     0.0000     0.0000     0.0000     0.0000     0.0000 </r>
        <r>    -2.8340     0.0000     0.0000     0.0000     0.0000     0.0000     0.0000     0.0000     0.0000     0.0000 </r>
        <r>    -2.6821     0.0000     0.0000     0.0000     0.0000     0.0000     0.0000     0.0000     0.0000     0.0000 </r>
        <r>    -2.5302     0.0000     0.0000     0.0000     0.0000     0.0000     0.0000     0.0000     0.0000     0.0000 </r>
        <r>    -2.3783     0.0000     0.0000     0.0000     0.0000     0.0000     0.0000     0.0000     0.0000     0.0000 </r>
        <r>    -2.2264     0.0001     0.0000     0.0000     0.0000     0.0000     0.0000     0.0000     0.0000     0.0000 </r>
        <r>    -2.0745     0.0689     0.0000     0.0000     0.0001     0.0227     0.0000     0.0192     0.0000     0.0348 </r>
        <r>    -1.9226     0.1403     0.0162     0.0000     0.0005     0.0109     0.0000     0.1213     0.0000     0.0667 </r>
        <r>    -1.7707     0.0913     0.0118     0.0000     0.0037     0.0696     0.0000     0.0537     0.0000     0.0292 </r>
        <r>    -1.6189     0.2000     0.0191     0.0000     0.0140     0.1893     0.0176     0.1311     0.0001     0.0240 </r>
        <r>    -1.4670     0.0983     0.0317     0.0003     0.0511     0.0623     0.1308     0.0161     0.0007     0.0387 </r>
        <r>    -1.3151     0.0242     0.0232     0.0003     0.0472     0.0650     0.0284     0.0295     0.0041     0.0376 </r>
        <r>    -1.1632     0.0622     0.0210     0.0109     0.0709     0.4957     0.9183     0.4039     0.2447     0.0520 </r>
        <r>    -1.0113     0.0599     0.0364     0.0296     0.0333     0.1139     0.1081     0.4017     0.0607     0.0782 </r>
        <r>    -0.8594     0.0039     0.0134     0.0538     0.0093     0.0310     0.3392     0.1001     0.0513     0.0166 </r>
        <r>    -0.7075     0.0000     0.0111     0.0179     0.0191     0.0472     0.2331     0.0316     0.0190     0.1237 </r>
        <r>    -0.5556     0.0000     0.0077     0.0105     0.0032     0.0426     0.0789     0.0416     0.0094     0.0060 </r>
        <r>    -0.4037     0.0000     0.0115     0.0173     0.0058     0.0040     0.0118     0.0000     0.0237     0.0316 </r>
        <r>    -0.2518     0.0000     0.0011     0.0016     0.0006     0.0006     0.0019     0.0000     0.0039     0.0052 </r>
        <r>    -0.0999     0.0000     0.0011     0.0011     0.0011     0.0000     0.0000     0.0000     0.0000     0.0000 </r>
        <r>     0.0519     0.0000     0.0000     0.0000     0.0000     0.0000     0.0000     0.0000     0.0000     0.0000 </r>
        <r>     0.2038     0.0000     0.0000     0.0000     0.0000     0.0000     0.0000     0.0000     0.0000     0.0000 </r>
        <r>     0.3557     0.0000     0.0000     0.0000     0.0000     0.0000     0.0000     0.0000     0.0000     0.0000 </r>
        <r>     0.5076     0.0000     0.0000     0.0000     0.0000     0.0000     0.0000     0.0000     0.0000     0.0000 </r>
        <r>     0.6595     0.0000     0.0000     0.0000     0.0000     0.0000     0.0000     0.0000     0.0000     0.0000 </r>
        <r>     0.8114     0.0000     0.0000     0.0000     0.0000     0.0014     0.0000     0.0046     0.0000     0.0002 </r>
        <r>     0.9633     0.0000     0.0000     0.0000     0.0000     0.1181     0.0000     0.3986     0.0000     0.0148 </r>
        <r>     1.1152     0.0000     0.0000     0.0000     0.0000     0.0031     0.0000     0.0105     0.0000     0.0004 </r>
        <r>     1.2671     0.0011     0.0000     0.0000     0.0000     0.4256     0.0000     0.8614     0.0000     0.0532 </r>
        <r>     1.4190     0.0043     0.0000     0.0000     0.0004     0.6599     0.0160     1.3516     0.0319     0.1842 </r>
        <r>     1.5708     0.0010     0.0001     0.0001     0.0001     0.3187     0.0306     0.9360     0.0871     0.1565 </r>
        <r>     1.7227     0.0044     0.0002     0.0002     0.0003     0.5415     0.3571     1.3986     0.9859     0.7726 </r>
        <r>     1.8746     0.0008     0.0004     0.0002     0.0027     0.8916     0.4914     0.9330     0.9330     1.7697 </r>
        <r>     2.0265     0.0201     0.0034     0.0008     0.0062     2.1443     1.1111     1.3750     3.6834     2.8463 </r>
        <r>     2.1784     0.0496     0.0030     0.0007     0.0068     1.8374     2.0397     0.9768     3.1254     4.1126 </r>
        <r>     2.3303     0.0480     0.0009     0.0001     0.0010     0.5331     0.5909     0.4796     1.1127     1.6593 </r>
        <r>     2.4822     0.0000     0.0020     0.0035     0.0003     0.4066     0.7629     0.2075     0.2093     0.0316 </r>
        <r>     2.6341     0.0362     0.0010     0.0105     0.0359     1.8441     2.1509     1.1666     0.6031     0.0861 </r>
        <r>     2.7860     0.0442     0.0004     0.0001     0.0092     0.4362     0.0169     0.2413     0.0082     0.0312 </r>
        <r>     2.9379     0.0225     0.0000     0.0013     0.0043     0.4405     0.7439     0.1639     0.3835     0.0513 </r>
        <r>     3.0898     0.0011     0.0000     0.0003     0.0005     0.0633     0.1962     0.0250     0.0968     0.0070 </r>
        <r>     3.2416     0.0000     0.0006     0.0038     0.0001     0.3702     2.1665     0.1742     0.9300     0.0331 </r>
        <r>     3.3935     0.0000     0.0000     0.0001     0.0000     0.0023     0.0705     0.0011     0.0296     0.0002 </r>
        <r>     3.5454     0.0000     0.0000     0.0000     0.0000     0.0000     0.0000     0.0000     0.0000     0.0000 </r>
        <r>     3.6973     0.0000     0.0000     0.0000     0.0000     0.0000     0.0000     0.0000     0.0000     0.0000 </r>
        <r>     3.8492     0.0000     0.0000     0.0000     0.0000     0.0000     0.0000     0.0000     0.0000     0.0000 </r>
        <r>     4.0011     0.0000     0.0000     0.0000     0.0000     0.0000     0.0000     0.0000     0.0000     0.0000 </r>
        <r>     4.1530     0.0206     0.0003     0.0000     0.0021     0.0000     0.0000     0.0000     0.0000     0.0000 </r>
        <r>     4.3049     0.2501     0.0031     0.0000     0.0252     0.0000     0.0000     0.0000     0.0000     0.0000 </r>
        <r>     4.4568     0.0006     0.0000     0.0000     0.0001     0.0000     0.0000     0.0000     0.0000     0.0000 </r>
        <r>     4.6087     0.0000     0.0000     0.0000     0.0000     0.0000     0.0000     0.0000     0.0000     0.0000 </r>
        <r>     4.7606     0.0000     0.0000     0.0000     0.0000     0.0000     0.0000     0.0000     0.0000     0.0000 </r>
        <r>     4.9124     0.1059     0.0035     0.0000     0.0070     0.0237     0.0000     0.0089     0.0000     0.0030 </r>
        <r>     5.0643     0.0657     0.0022     0.0000     0.0044     0.0147     0.0000     0.0055     0.0000     0.0018 </r>
        <r>     5.2162     0.0000     0.0000     0.0000     0.0000     0.0000     0.0000     0.0000     0.0000     0.0000 </r>
        <r>     5.3681     0.0000     0.0000     0.0000     0.0000     0.0000     0.0000     0.0000     0.0000     0.0000 </r>
        <r>     5.5200     0.0000     0.0000     0.0000     0.0000     0.0000     0.0000     0.0000     0.0000     0.0000 </r>
        <r>     5.6719     0.0000     0.0000     0.0000     0.0000     0.0000     0.0000     0.0000     0.0000     0.0000 </r>
        <r>     5.8238     0.0000     0.0000     0.0000     0.0000     0.0000     0.0000     0.0000     0.0000     0.0000 </r>
        <r>     5.9757     0.0003     0.0001     0.0000     0.0000     0.0000     0.0000     0.0000     0.0000     0.0000 </r>
        <r>     6.1276     0.2941     0.0503     0.0000     0.0252     0.0351     0.0000     0.0002     0.0000     0.0044 </r>
        <r>     6.2795     0.0389     0.0067     0.0000     0.0033     0.0046     0.0000     0.0000     0.0000     0.0006 </r>
        <r>     6.4313     0.0000     0.0000     0.0000     0.0000     0.0000     0.0000     0.0000     0.0000     0.0000 </r>
        <r>     6.5832     0.0000     0.0000     0.0000     0.0000     0.0000     0.0000     0.0000     0.0000     0.0000 </r>
        <r>     6.7351     0.0000     0.0000     0.0000     0.0000     0.0000     0.0000     0.0000     0.0000     0.0000 </r>
        <r>     6.8870     0.0633     0.0004     0.0000     0.0165     0.0039     0.0000     0.0017     0.0000     0.0036 </r>
        <r>     7.0389     0.8140     0.0132     0.0000     0.2511     0.0445     0.0000     0.0202     0.0000     0.0421 </r>
        <r>     7.1908     0.0026     0.0001     0.0000     0.0011     0.0001     0.0000     0.0000     0.0000     0.0001 </r>
        <r>     7.3427     0.0000     0.0000     0.0000     0.0000     0.0000     0.0000     0.0000     0.0000     0.0000 </r>
        <r>     7.4946     0.0000     0.0000     0.0000     0.0000     0.0000     0.0000     0.0000     0.0000     0.0000 </r>
        <r>     7.6465     0.0000     0.0000     0.0000     0.0000     0.0000     0.0000     0.0000     0.0000     0.0000 </r>
        <r>     7.7984     0.0205     0.0005     0.0000     0.0010     0.0013     0.0000     0.0005     0.0000     0.0002 </r>
        <r>     7.9503     0.2400     0.0059     0.0000     0.0118     0.0152     0.0000     0.0057     0.0000     0.0019 </r>
        <r>     8.1021     0.0005     0.0000     0.0000     0.0000     0.0000     0.0000     0.0000     0.0000     0.0000 </r>
        <r>     8.2540     0.0000     0.0000     0.0000     0.0000     0.0000     0.0000     0.0000     0.0000     0.0000 </r>
        <r>     8.4059     0.0000     0.0000     0.0000     0.0000     0.0000     0.0000     0.0000     0.0000     0.0000 </r>
        <r>     8.5578     0.0000     0.0000     0.0000     0.0000     0.0000     0.0000     0.0000     0.0000     0.0000 </r>
        <r>     8.7097     0.0000     0.0000     0.0000     0.0000     0.0000     0.0000     0.0000     0.0000     0.0000 </r>
        <r>     8.8616     0.3892     0.0020     0.0074     0.0380     0.0036     0.0001     0.0026     0.0104     0.0121 </r>
        <r>     9.0135     1.3098     0.0709     0.0128     0.2479     0.0791     0.0001     0.0271     0.0181     0.0220 </r>
        <r>     9.1654     0.1058     0.0016     0.0000     0.0029     0.0018     0.0000     0.0013     0.0000     0.0001 </r>
        <r>     9.3173     0.6662     0.0044     0.0000     0.0022     0.0057     0.0000     0.0069     0.0000     0.0007 </r>
        <r>     9.4692     0.0006     0.0000     0.0000     0.0000     0.0000     0.0000     0.0000     0.0000     0.0000 </r>
        <r>     9.6210     0.0000     0.0000     0.0000     0.0000     0.0000     0.0000     0.0000     0.0000     0.0000 </r>
        <r>     9.7729     0.0000     0.0000     0.0000     0.0000     0.0000     0.0000     0.0000     0.0000     0.0000 </r>
        <r>     9.9248     0.2510     0.0198     0.0000     0.2212     0.0002     0.0000     0.0012     0.0000     0.0443 </r>
        <r>    10.0767     0.2297     0.0181     0.0000     0.2024     0.0002     0.0000     0.0011     0.0000     0.0406 </r>
        <r>    10.2286     0.0000     0.0000     0.0000     0.0000     0.0000     0.0000     0.0000     0.0000     0.0000 </r>
        <r>    10.3805     0.0000     0.0000     0.0000     0.0000     0.0000     0.0000     0.0000     0.0000     0.0000 </r>
        <r>    10.5324     0.0000     0.0000     0.0000     0.0000     0.0000     0.0000     0.0000     0.0000     0.0000 </r>
        <r>    10.6843     0.0013     0.0001     0.0000     0.0009     0.0001     0.0000     0.0001     0.0000     0.0001 </r>
        <r>    10.8362     0.1751     0.0808     0.0000     0.2462     0.0148     0.0000     0.0106     0.0000     0.0377 </r>
        <r>    10.9881     0.0059     0.0364     0.0000     0.0756     0.0017     0.0000     0.0004     0.0000     0.0106 </r>
        <r>    11.1400     0.0000     0.0000     0.0000     0.0000     0.0000     0.0000     0.0000     0.0000     0.0000 </r>
        <r>    11.2918     0.0000     0.0000     0.0000     0.0000     0.0000     0.0000     0.0000     0.0000     0.0000 </r>
        <r>    11.4437     0.0000     0.0000     0.0000     0.0000     0.0000     0.0000     0.0000     0.0000     0.0000 </r>
        <r>    11.5956     0.3027     0.0467     0.0300     0.3332     0.0006     0.0014     0.0009     0.0113     0.0138 </r>
        <r>    11.7475     0.2496     0.0554     0.0192     0.2642     0.0013     0.0009     0.0009     0.0072     0.0090 </r>
        <r>    11.8994     0.0000     0.0000     0.0000     0.0000     0.0000     0.0000     0.0000     0.0000     0.0000 </r>
        <r>    12.0513     0.0000     0.0000     0.0000     0.0000     0.0000     0.0000     0.0000     0.0000     0.0000 </r>
        <r>    12.2032     0.0000     0.0000     0.0000     0.0000     0.0000     0.0000     0.0000     0.0000     0.0000 </r>
        <r>    12.3551     0.0000     0.0000     0.0000     0.0000     0.0000     0.0000     0.0000     0.0000     0.0000 </r>
        <r>    12.5070     0.1838     0.0037     0.0000     0.2389     0.0130     0.0000     0.0269     0.0000     0.0028 </r>
        <r>    12.6589     0.2588     0.1539     0.2230     0.4106     0.0653     0.0025     0.1573     0.0049     0.0041 </r>
        <r>    12.8108     0.0008     0.2143     0.0813     0.1072     0.0668     0.0009     0.0769     0.0018     0.0063 </r>
        <r>    12.9626     0.0003     0.0677     0.0000     0.0338     0.0210     0.0000     0.0141     0.0000     0.0026 </r>
        <r>    13.1145     0.0000     0.0000     0.0000     0.0000     0.0000     0.0000     0.0000     0.0000     0.0000 </r>
        <r>    13.2664     0.0000     0.0000     0.0000     0.0000     0.0000     0.0000     0.0000     0.0000     0.0000 </r>
        <r>    13.4183     0.0000     0.0000     0.0000     0.0000     0.0000     0.0000     0.0000     0.0000     0.0000 </r>
        <r>    13.5702     0.0000     0.0000     0.0000     0.0000     0.0000     0.0000     0.0000     0.0000     0.0000 </r>
        <r>    13.7221     0.0053     0.0220     0.0000     0.0019     0.0016     0.0000     0.0002     0.0000     0.0020 </r>
        <r>    13.8740     0.1637     0.6807     0.0000     0.0597     0.0481     0.0000     0.0070     0.0000     0.0611 </r>
        <r>    14.0259     0.1248     0.1340     0.0000     0.0649     0.0022     0.0000     0.0032     0.0000     0.0008 </r>
        <r>    14.1778     0.1225     0.2052     0.0000     0.2191     0.0163     0.0000     0.0031     0.0000     0.1166 </r>
        <r>    14.3297     0.0000     0.0148     0.0000     0.0295     0.0028     0.0000     0.0000     0.0000     0.0221 </r>
        <r>    14.4815     0.0000     0.0000     0.0000     0.0000     0.0000     0.0000     0.0000     0.0000     0.0000 </r>
        <r>    14.6334     0.0000     0.0000     0.0000     0.0000     0.0000     0.0000     0.0000     0.0000     0.0000 </r>
        <r>    14.7853     0.0000     0.0000     0.0000     0.0000     0.0000     0.0000     0.0000     0.0000     0.0000 </r>
        <r>    14.9372     0.0107     0.0593     0.0000     0.0042     0.0121     0.0000     0.0054     0.0000     0.0006 </r>
        <r>    15.0891     0.1186     0.7029     0.0388     0.0471     0.1394     0.0015     0.0606     0.0002     0.0065 </r>
        <r>    15.2410     0.0002     0.5278     0.4204     0.0095     0.0579     0.0159     0.0156     0.0021     0.0010 </r>
        <r>    15.3929     0.0162     0.0085     0.0008     0.0597     0.0095     0.0000     0.0080     0.0000     0.0144 </r>
        <r>    15.5448     0.0288     0.0133     0.0000     0.1063     0.0168     0.0000     0.0142     0.0000     0.0257 </r>
        <r>    15.6967     0.0000     0.0000     0.0000     0.0000     0.0000     0.0000     0.0000     0.0000     0.0000 </r>
        <r>    15.8486     0.0000     0.0000     0.0000     0.0000     0.0000     0.0000     0.0000     0.0000     0.0000 </r>
        <r>    16.0005     0.0000     0.0001     0.1911     0.0001     0.0000     0.0003     0.0000     0.0002     0.0000 </r>
        <r>    16.1523     0.0000     0.1494     0.5780     0.0747     0.0005     0.0022     0.0000     0.0035     0.0043 </r>
        <r>    16.3042     0.0000     0.0212     0.0324     0.0106     0.0102     0.0002     0.0343     0.0005     0.0019 </r>
        <r>    16.4561     0.0000     0.0000     1.0183     0.0000     0.0325     0.0086     0.1098     0.0026     0.0041 </r>
        <r>    16.6080     0.0002     0.0029     1.2148     0.0007     0.0000     0.0156     0.0000     0.0388     0.0000 </r>
        <r>    16.7599     0.0860     0.4124     0.3957     0.2062     0.0113     0.0004     0.0040     0.0092     0.0055 </r>
        <r>    16.9118     0.0080     0.0179     0.0115     0.0167     0.0009     0.0000     0.0003     0.0003     0.0002 </r>
        <r>    17.0637     0.0000     0.0000     0.0000     0.0000     0.0000     0.0000     0.0000     0.0000     0.0000 </r>
        <r>    17.2156     0.0000     0.0000     0.0000     0.0000     0.0093     0.0000     0.0314     0.0000     0.0012 </r>
        <r>    17.3675     0.0000     0.0000     0.0000     0.0000     0.0191     0.0000     0.0645     0.0000     0.0024 </r>
        <r>    17.5194     0.0000     0.0000     0.0000     0.0000     0.0000     0.0000     0.0000     0.0000     0.0000 </r>
        <r>    17.6713     0.0000     0.0001     0.0001     0.0000     0.0000     0.0000     0.0000     0.0000     0.0000 </r>
        <r>    17.8231     0.0000     0.1339     0.2086     0.0670     0.0044     0.0134     0.0000     0.0263     0.0349 </r>
        <r>    17.9750     0.0000     0.0290     0.7036     0.0145     0.0009     0.0259     0.0000     0.0172     0.0076 </r>
        <r>    18.1269     0.0000     0.0000     0.0150     0.0000     0.0000     0.0005     0.0000     0.0003     0.0000 </r>
        <r>    18.2788     0.0000     0.0000     0.0000     0.0000     0.0000     0.0000     0.0000     0.0000     0.0000 </r>
        <r>    18.4307     0.0000     0.0000     0.0000     0.0000     0.0000     0.0000     0.0000     0.0000     0.0000 </r>
        <r>    18.5826     0.0000     0.0000     0.0000     0.0000     0.0000     0.0000     0.0000     0.0000     0.0000 </r>
        <r>    18.7345     0.0034     0.0294     0.0017     0.0142     0.0029     0.0000     0.0943     0.0003     0.0005 </r>
        <r>    18.8864     0.0062     0.3652     0.3527     0.0650     0.0204     0.0026     0.1867     0.0579     0.0337 </r>
        <r>    19.0383     0.0000     0.0152     0.0171     0.0019     0.0007     0.0001     0.0006     0.0028     0.0016 </r>
        <r>    19.1902     0.0000     0.0000     0.0000     0.0000     0.0000     0.0000     0.0000     0.0000     0.0000 </r>
        <r>    19.3420     0.0000     0.0000     0.0000     0.0000     0.0000     0.0000     0.0000     0.0000     0.0000 </r>
        <r>    19.4939     0.0000     0.0000     0.0000     0.0000     0.0000     0.0000     0.0000     0.0000     0.0000 </r>
        <r>    19.6458     0.0033     0.0969     0.0000     0.0163     0.0007     0.0000     0.1263     0.0000     0.0095 </r>
        <r>    19.7977     0.0075     0.2189     0.0000     0.0368     0.0017     0.0000     0.2855     0.0000     0.0215 </r>
        <r>    19.9496     0.0000     0.0000     0.0000     0.0000     0.0000     0.0000     0.0000     0.0000     0.0000 </r>
        <r>    20.1015     0.0285     0.0089     0.0000     0.0710     0.0024     0.0000     0.0020     0.0000     0.0037 </r>
        <r>    20.2534     0.0280     0.0087     0.0000     0.0698     0.0024     0.0000     0.0020     0.0000     0.0036 </r>
        <r>    20.4053     0.0000     0.0000     0.0000     0.0000     0.0000     0.0000     0.0000     0.0000     0.0000 </r>
        <r>    20.5572     0.0000     0.0000     0.0000     0.0000     0.0000     0.0000     0.0000     0.0000     0.0000 </r>
        <r>    20.7091     0.0000     0.0000     0.0000     0.0000     0.0000     0.0000     0.0000     0.0000     0.0000 </r>
        <r>    20.8610     0.0000     0.0000     0.0000     0.0000     0.0000     0.0000     0.0000     0.0000     0.0000 </r>
        <r>    21.0128     0.0000     0.0385     0.0577     0.0192     0.0292     0.0006     0.1158     0.0012     0.0113 </r>
[...]
        <r>  0.0000  0.2579  0.0000  0.1289  0.0084  0.0000  0.0000  0.0000  0.0673 </r>
        <r>  0.0000  0.0431  0.0000  0.0216  0.0000  0.0000  0.0000  0.0000  0.0000 </r>
       </set>
      </set>
      <set comment="kpoint 5">
       <set comment="band 1">
        <r>  0.0022  0.0000  0.0000  0.0028  0.0017  0.0000  0.0007  0.0000  0.0002 </r>
        <r>  0.9311  0.0000  0.0000  0.0000  0.0000  0.0000  0.0000  0.0000  0.0000 </r>
       </set>
       <set comment="band 2">
        <r>  0.0554  0.0086  0.0000  0.0051  0.0952  0.0000  0.0043  0.0000  0.0099 </r>
        <r>  0.0011  0.0290  0.0000  0.5121  0.0000  0.0000  0.0000  0.0000  0.0000 </r>
       </set>
       <set comment="band 3">
        <r>  0.0090  0.0042  0.0000  0.0075  0.0213  0.0000  0.1190  0.0000  0.0305 </r>
        <r>  0.0008  0.5586  0.0000  0.0337  0.0000  0.0000  0.0000  0.0000  0.0000 </r>
       </set>
       <set comment="band 4">
        <r>  0.0000  0.0000  0.0120  0.0000  0.0000  0.1607  0.0000  0.0034  0.0000 </r>
        <r>  0.0000  0.0000  0.6229  0.0000  0.0000  0.0000  0.0000  0.0000  0.0000 </r>
       </set>
       <set comment="band 5">
        <r>  0.0019  0.0000  0.0000  0.0002  0.2576  0.0000  0.5462  0.0000  0.0608 </r>
        <r>  0.0005  0.0240  0.0000  0.0153  0.0000  0.0000  0.0000  0.0000  0.0000 </r>
       </set>
       <set comment="band 6">
        <r>  0.0000  0.0000  0.0001  0.0000  0.0000  0.1114  0.0000  0.8402  0.0000 </r>
        <r>  0.0000  0.0000  0.0115  0.0000  0.0000  0.0000  0.0000  0.0000  0.0000 </r>
       </set>
       <set comment="band 7">
        <r>  0.0012  0.0001  0.0000  0.0000  0.0859  0.0000  0.0007  0.0000  0.8033 </r>
        <r>  0.0000  0.0084  0.0000  0.0600  0.0000  0.0000  0.0000  0.0000  0.0000 </r>
       </set>
       <set comment="band 8">
        <r>  0.0000  0.0000  0.0031  0.0000  0.0000  0.6835  0.0000  0.1207  0.0000 </r>
        <r>  0.0000  0.0000  0.1517  0.0000  0.0000  0.0000  0.0000  0.0000  0.0000 </r>
       </set>
       <set comment="band 9">
        <r>  0.0158  0.0005  0.0000  0.0100  0.4580  0.0000  0.2337  0.0000  0.0388 </r>
        <r>  0.0134  0.1486  0.0000  0.0069  0.0000  0.0000  0.0000  0.0000  0.0000 </r>
       </set>
       <set comment="band 10">
        <r>  0.2816  0.0001  0.0000  0.0635  0.0187  0.0000  0.0083  0.0000  0.0174 </r>
        <r>  0.0295  0.0166  0.0000  0.1900  0.0000  0.0000  0.0000  0.0000  0.0000 </r>
       </set>
       <set comment="band 11">
        <r>  0.1751  0.0035  0.0000  0.2275  0.0124  0.0000  0.0256  0.0000  0.0027 </r>
        <r>  0.0055  0.0533  0.0000  0.0213  0.0000  0.0000  0.0000  0.0000  0.0000 </r>
       </set>
       <set comment="band 12">
        <r>  0.0513  0.2828  0.0000  0.0200  0.0579  0.0000  0.0256  0.0000  0.0027 </r>
        <r>  0.0006  0.0000  0.0000  0.0328  0.0000  0.0000  0.0000  0.0000  0.0000 </r>
       </set>
       <set comment="band 13">
        <r>  0.0000  0.0000  0.4201  0.0000  0.0000  0.0058  0.0000  0.0157  0.0000 </r>
        <r>  0.0000  0.0000  0.0716  0.0000  0.0000  0.0000  0.0000  0.0000  0.0000 </r>
       </set>
       <set comment="band 14">
        <r>  0.0043  0.1249  0.0000  0.0210  0.0010  0.0000  0.1629  0.0000  0.0123 </r>
        <r>  0.0104  0.0009  0.0000  0.0246  0.0000  0.0000  0.0000  0.0000  0.0000 </r>
       </set>
      </set>
      <set comment="kpoint 6">
       <set comment="band 1">
        <r>  0.0000  0.0010  0.0000  0.0028  0.0018  0.0000  0.0007  0.0000  0.0002 </r>
        <r>  0.9295  0.0000  0.0000  0.0000  0.0000  0.0000  0.0000  0.0000  0.0000 </r>
       </set>
       <set comment="band 2">
        <r>  0.0706  0.0087  0.0000  0.0003  0.0043  0.0000  0.0639  0.0000  0.0334 </r>
        <r>  0.0000  0.1286  0.0000  0.3989  0.0000  0.0000  0.0000  0.0000  0.0000 </r>
       </set>
       <set comment="band 3">
        <r>  0.0000  0.0000  0.0039  0.0000  0.0000  0.2040  0.0000  0.0382  0.0000 </r>
        <r>  0.0000  0.0000  0.5594  0.0000  0.0000  0.0000  0.0000  0.0000  0.0000 </r>
       </set>
       <set comment="band 4">
        <r>  0.0000  0.0032  0.0000  0.0180  0.0913  0.0000  0.0715  0.0000  0.0106 </r>
        <r>  0.0001  0.4304  0.0000  0.1478  0.0000  0.0000  0.0000  0.0000  0.0000 </r>
       </set>
       <set comment="band 5">
        <r>  0.0002  0.0002  0.0000  0.0009  0.3073  0.0000  0.4114  0.0000  0.1866 </r>
        <r>  0.0010  0.0242  0.0000  0.0104  0.0000  0.0000  0.0000  0.0000  0.0000 </r>
       </set>
       <set comment="band 6">
        <r>  0.0000  0.0000  0.0000  0.0000  0.0000  0.2408  0.0000  0.7126  0.0000 </r>
        <r>  0.0000  0.0000  0.0058  0.0000  0.0000  0.0000  0.0000  0.0000  0.0000 </r>
       </set>
       <set comment="band 7">
        <r>  0.0022  0.0001  0.0000  0.0001  0.0871  0.0000  0.0611  0.0000  0.6925 </r>
        <r>  0.0002  0.0003  0.0000  0.1050  0.0000  0.0000  0.0000  0.0000  0.0000 </r>
       </set>
       <set comment="band 8">
        <r>  0.0035  0.0001  0.0000  0.0078  0.4424  0.0000  0.3226  0.0000  0.0074 </r>
        <r>  0.0084  0.1462  0.0000  0.0090  0.0000  0.0000  0.0000  0.0000  0.0000 </r>
       </set>
       <set comment="band 9">
        <r>  0.0000  0.0000  0.0010  0.0000  0.0000  0.5166  0.0000  0.2178  0.0000 </r>
        <r>  0.0000  0.0000  0.2404  0.0000  0.0000  0.0000  0.0000  0.0000  0.0000 </r>
       </set>
       <set comment="band 10">
        <r>  0.2683  0.0285  0.0000  0.0770  0.0308  0.0000  0.0095  0.0000  0.0004 </r>
        <r>  0.0165  0.0991  0.0000  0.0790  0.0000  0.0000  0.0000  0.0000  0.0000 </r>
       </set>
       <set comment="band 11">
        <r>  0.1902  0.0150  0.0000  0.1675  0.0001  0.0000  0.0009  0.0000  0.0336 </r>
        <r>  0.0187  0.0018  0.0000  0.1041  0.0000  0.0000  0.0000  0.0000  0.0000 </r>
       </set>
       <set comment="band 12">
        <r>  0.0673  0.2800  0.0000  0.0245  0.0198  0.0000  0.0029  0.0000  0.0251 </r>
        <r>  0.0029  0.0200  0.0000  0.0318  0.0000  0.0000  0.0000  0.0000  0.0000 </r>
       </set>
       <set comment="band 13">
        <r>  0.0000  0.0000  0.4720  0.0000  0.0000  0.0039  0.0000  0.0010  0.0000 </r>
        <r>  0.0000  0.0000  0.0393  0.0000  0.0000  0.0000  0.0000  0.0000  0.0000 </r>
       </set>
       <set comment="band 14">
        <r>  0.0132  0.0209  0.0000  0.0157  0.0014  0.0000  0.1991  0.0000  0.0014 </r>
        <r>  0.0393  0.0083  0.0000  0.0001  0.0000  0.0000  0.0000  0.0000  0.0000 </r>
       </set>
      </set>
      <set comment="kpoint 7">
       <set comment="band 1">
        <r>  0.0034  0.0021  0.0000  0.0011  0.0007  0.0000  0.0002  0.0000  0.0001 </r>
        <r>  0.9271  0.0000  0.0000  0.0000  0.0000  0.0000  0.0000  0.0000  0.0000 </r>
       </set>
       <set comment="band 2">
        <r>  0.0737  0.0003  0.0000  0.0002  0.0089  0.0000  0.1038  0.0000  0.0011 </r>
        <r>  0.0029  0.3563  0.0000  0.1782  0.0000  0.0000  0.0000  0.0000  0.0000 </r>
       </set>
       <set comment="band 3">
        <r>  0.0000  0.0000  0.0000  0.0000  0.0000  0.1671  0.0000  0.0836  0.0000 </r>
        <r>  0.0000  0.0000  0.5631  0.0000  0.0000  0.0000  0.0000  0.0000  0.0000 </r>
       </set>
       <set comment="band 4">
        <r>  0.0000  0.0077  0.0000  0.0154  0.0126  0.0000  0.0000  0.0000  0.1010 </r>
        <r>  0.0000  0.2125  0.0000  0.4250  0.0000  0.0000  0.0000  0.0000  0.0000 </r>
       </set>
       <set comment="band 5">
        <r>  0.0000  0.0000  0.0000  0.0000  0.0000  0.3136  0.0000  0.6271  0.0000 </r>
        <r>  0.0000  0.0000  0.0000  0.0000  0.0000  0.0000  0.0000  0.0000  0.0000 </r>
       </set>
       <set comment="band 6">
        <r>  0.0000  0.0001  0.0000  0.0001  0.0884  0.0000  0.0000  0.0000  0.7072 </r>
        <r>  0.0000  0.0448  0.0000  0.0897  0.0000  0.0000  0.0000  0.0000  0.0000 </r>
       </set>
       <set comment="band 7">
        <r>  0.0030  0.0001  0.0000  0.0001  0.6785  0.0000  0.1697  0.0000  0.0848 </r>
        <r>  0.0020  0.0095  0.0000  0.0047  0.0000  0.0000  0.0000  0.0000  0.0000 </r>
       </set>
       <set comment="band 8">
        <r>  0.0246  0.0008  0.0000  0.0004  0.1387  0.0000  0.6692  0.0000  0.0173 </r>
        <r>  0.0068  0.0493  0.0000  0.0247  0.0000  0.0000  0.0000  0.0000  0.0000 </r>
       </set>
       <set comment="band 9">
        <r>  0.0000  0.0000  0.0007  0.0000  0.0000  0.4771  0.0000  0.2385  0.0000 </r>
        <r>  0.0000  0.0000  0.2540  0.0000  0.0000  0.0000  0.0000  0.0000  0.0000 </r>
       </set>
       <set comment="band 10">
        <r>  0.2637  0.0451  0.0000  0.0226  0.0314  0.0000  0.0002  0.0000  0.0039 </r>
        <r>  0.0400  0.1328  0.0000  0.0664  0.0000  0.0000  0.0000  0.0000  0.0000 </r>
       </set>
       <set comment="band 11">
        <r>  0.1946  0.2026  0.0000  0.1013  0.0028  0.0000  0.0050  0.0000  0.0004 </r>
        <r>  0.0086  0.0248  0.0000  0.0124  0.0000  0.0000  0.0000  0.0000  0.0000 </r>
       </set>
       <set comment="band 12">
        <r>  0.0000  0.0732  0.0000  0.1463  0.0137  0.0000  0.0000  0.0000  0.1097 </r>
        <r>  0.0000  0.0232  0.0000  0.0465  0.0000  0.0000  0.0000  0.0000  0.0000 </r>
       </set>
       <set comment="band 13">
        <r>  0.0000  0.0000  0.5402  0.0000  0.0000  0.0188  0.0000  0.0094  0.0000 </r>
        <r>  0.0000  0.0000  0.0044  0.0000  0.0000  0.0000  0.0000  0.0000  0.0000 </r>
       </set>
       <set comment="band 14">
        <r>  0.0000  0.0000  0.0000  0.0000  0.0000  0.0792  0.0000  0.1583  0.0000 </r>
        <r>  0.0000  0.0000  0.0000  0.0000  0.0000  0.0000  0.0000  0.0000  0.0000 </r>
       </set>
      </set>
      <set comment="kpoint 8">
       <set comment="band 1">
        <r>  0.0019  0.0002  0.0000  0.0004  0.0046  0.0000  0.0017  0.0000  0.0006 </r>
        <r>  0.9328  0.0000  0.0000  0.0000  0.0000  0.0000  0.0000  0.0000  0.0000 </r>
       </set>
       <set comment="band 2">
        <r>  0.0145  0.0152  0.0000  0.0303  0.0344  0.0000  0.0129  0.0000  0.0043 </r>
        <r>  0.0001  0.2006  0.0000  0.4011  0.0000  0.0000  0.0000  0.0000  0.0000 </r>
       </set>
       <set comment="band 3">
        <r>  0.0000  0.0000  0.0267  0.0000  0.0000  0.0051  0.0000  0.0102  0.0000 </r>
        <r>  0.0000  0.0000  0.7406  0.0000  0.0000  0.0000  0.0000  0.0000  0.0000 </r>
       </set>
       <set comment="band 4">
        <r>  0.0000  0.0178  0.0000  0.0089  0.0017  0.0000  0.0000  0.0000  0.0136 </r>
        <r>  0.0000  0.4937  0.0000  0.2469  0.0000  0.0000  0.0000  0.0000  0.0000 </r>
       </set>
       <set comment="band 5">
        <r>  0.0000  0.0000  0.0000  0.0000  0.1933  0.0000  0.6525  0.0000  0.0242 </r>
        <r>  0.0000  0.0000  0.0000  0.0000  0.0000  0.0000  0.0000  0.0000  0.0000 </r>
       </set>
       <set comment="band 6">
        <r>  0.0156  0.0016  0.0000  0.0031  0.5705  0.0000  0.2139  0.0000  0.0713 </r>
        <r>  0.0230  0.0089  0.0000  0.0179  0.0000  0.0000  0.0000  0.0000  0.0000 </r>
       </set>
       <set comment="band 7">
        <r>  0.0000  0.0000  0.0000  0.0000  0.0000  0.6416  0.0000  0.3208  0.0000 </r>
        <r>  0.0000  0.0000  0.0000  0.0000  0.0000  0.0000  0.0000  0.0000  0.0000 </r>
       </set>
       <set comment="band 8">
        <r>  0.0000  0.0000  0.0000  0.0000  0.1060  0.0000  0.0000  0.0000  0.8478 </r>
        <r>  0.0000  0.0116  0.0000  0.0058  0.0000  0.0000  0.0000  0.0000  0.0000 </r>
       </set>
       <set comment="band 9">
        <r>  0.0000  0.0000  0.0001  0.0000  0.0000  0.3179  0.0000  0.6359  0.0000 </r>
        <r>  0.0000  0.0000  0.0174  0.0000  0.0000  0.0000  0.0000  0.0000  0.0000 </r>
       </set>
       <set comment="band 10">
        <r>  0.4131  0.0101  0.0000  0.0202  0.0262  0.0000  0.0098  0.0000  0.0033 </r>
        <r>  0.0175  0.0497  0.0000  0.0994  0.0000  0.0000  0.0000  0.0000  0.0000 </r>
       </set>
       <set comment="band 11">
        <r>  0.1774  0.0808  0.0000  0.1616  0.0030  0.0000  0.0011  0.0000  0.0004 </r>
        <r>  0.0000  0.0375  0.0000  0.0749  0.0000  0.0000  0.0000  0.0000  0.0000 </r>
       </set>
       <set comment="band 12">
        <r>  0.0000  0.0000  0.4052  0.0000  0.0000  0.0029  0.0000  0.0058  0.0000 </r>
        <r>  0.0000  0.0000  0.1331  0.0000  0.0000  0.0000  0.0000  0.0000  0.0000 </r>
       </set>
       <set comment="band 13">
        <r>  0.0000  0.2701  0.0000  0.1351  0.0010  0.0000  0.0000  0.0000  0.0078 </r>
        <r>  0.0000  0.0887  0.0000  0.0444  0.0000  0.0000  0.0000  0.0000  0.0000 </r>
       </set>
       <set comment="band 14">
        <r>  0.0000  0.0000  0.0000  0.0000  0.0676  0.0000  0.2280  0.0000  0.0084 </r>
        <r>  0.0000  0.0000  0.0000  0.0000  0.0000  0.0000  0.0000  0.0000  0.0000 </r>
       </set>
      </set>
      <set comment="kpoint 9">
       <set comment="band 1">
        <r>  0.0005  0.0008  0.0000  0.0004  0.0046  0.0000  0.0018  0.0000  0.0006 </r>
        <r>  0.9276  0.0000  0.0000  0.0000  0.0000  0.0000  0.0000  0.0000  0.0000 </r>
       </set>
       <set comment="band 2">
        <r>  0.0000  0.0184  0.0000  0.0368  0.0032  0.0000  0.0000  0.0000  0.0252 </r>
        <r>  0.0000  0.2107  0.0000  0.4213  0.0000  0.0000  0.0000  0.0000  0.0000 </r>
       </set>
       <set comment="band 3">
        <r>  0.0258  0.0126  0.0000  0.0063  0.0026  0.0000  0.0923  0.0000  0.0003 </r>
        <r>  0.0006  0.4097  0.0000  0.2048  0.0000  0.0000  0.0000  0.0000  0.0000 </r>
       </set>
       <set comment="band 4">
        <r>  0.0000  0.0000  0.0177  0.0000  0.0000  0.0833  0.0000  0.0417  0.0000 </r>
        <r>  0.0000  0.0000  0.6503  0.0000  0.0000  0.0000  0.0000  0.0000  0.0000 </r>
       </set>
       <set comment="band 5">
        <r>  0.0011  0.0000  0.0000  0.0000  0.3198  0.0000  0.4809  0.0000  0.0400 </r>
        <r>  0.0008  0.0347  0.0000  0.0173  0.0000  0.0000  0.0000  0.0000  0.0000 </r>
       </set>
       <set comment="band 6">
        <r>  0.0001  0.0027  0.0000  0.0014  0.4898  0.0000  0.3217  0.0000  0.0612 </r>
        <r>  0.0172  0.0340  0.0000  0.0170  0.0000  0.0000  0.0000  0.0000  0.0000 </r>
       </set>
       <set comment="band 7">
        <r>  0.0000  0.0000  0.0000  0.0000  0.0000  0.3231  0.0000  0.6462  0.0000 </r>
        <r>  0.0000  0.0000  0.0000  0.0000  0.0000  0.0000  0.0000  0.0000  0.0000 </r>
       </set>
       <set comment="band 8">
        <r>  0.0000  0.0000  0.0000  0.0001  0.1030  0.0000  0.0000  0.0000  0.8240 </r>
        <r>  0.0000  0.0130  0.0000  0.0259  0.0000  0.0000  0.0000  0.0000  0.0000 </r>
       </set>
       <set comment="band 9">
        <r>  0.0000  0.0000  0.0032  0.0000  0.0000  0.5623  0.0000  0.2812  0.0000 </r>
        <r>  0.0000  0.0000  0.1180  0.0000  0.0000  0.0000  0.0000  0.0000  0.0000 </r>
       </set>
       <set comment="band 10">
        <r>  0.6041  0.0040  0.0000  0.0020  0.0052  0.0000  0.0062  0.0000  0.0006 </r>
        <r>  0.0079  0.0382  0.0000  0.0191  0.0000  0.0000  0.0000  0.0000  0.0000 </r>
       </set>
       <set comment="band 11">
        <r>  0.0000  0.0811  0.0000  0.1623  0.0028  0.0000  0.0000  0.0000  0.0226 </r>
        <r>  0.0000  0.0734  0.0000  0.1469  0.0000  0.0000  0.0000  0.0000  0.0000 </r>
       </set>
       <set comment="band 12">
        <r>  0.0009  0.1802  0.0000  0.0901  0.0559  0.0000  0.0375  0.0000  0.0070 </r>
        <r>  0.0154  0.0581  0.0000  0.0291  0.0000  0.0000  0.0000  0.0000  0.0000 </r>
       </set>
       <set comment="band 13">
        <r>  0.0000  0.0000  0.4310  0.0000  0.0000  0.0007  0.0000  0.0004  0.0000 </r>
        <r>  0.0000  0.0000  0.1175  0.0000  0.0000  0.0000  0.0000  0.0000  0.0000 </r>
       </set>
       <set comment="band 14">
        <r>  0.0076  0.0630  0.0000  0.0315  0.0064  0.0000  0.2125  0.0000  0.0008 </r>
        <r>  0.0169  0.0090  0.0000  0.0045  0.0000  0.0000  0.0000  0.0000  0.0000 </r>
       </set>
      </set>
      <set comment="kpoint 10">
       <set comment="band 1">
        <r>  0.0003  0.0001  0.0008  0.0013  0.0031  0.0005  0.0011  0.0003  0.0004 </r>
        <r>  0.9307  0.0000  0.0000  0.0000  0.0000  0.0000  0.0000  0.0000  0.0000 </r>
       </set>
       <set comment="band 2">
        <r>  0.0373  0.0098  0.0002  0.0140  0.0131  0.0587  0.0015  0.0003  0.0152 </r>
        <r>  0.0001  0.0106  0.0970  0.4694  0.0000  0.0000  0.0000  0.0000  0.0000 </r>
       </set>
       <set comment="band 3">
        <r>  0.0052  0.0017  0.0005  0.0094  0.0710  0.0476  0.0252  0.0327  0.0051 </r>
        <r>  0.0002  0.3850  0.1931  0.0135  0.0000  0.0000  0.0000  0.0000  0.0000 </r>
       </set>
       <set comment="band 4">
        <r>  0.0000  0.0123  0.0184  0.0061  0.0231  0.0022  0.0525  0.0045  0.0011 </r>
        <r>  0.0000  0.2096  0.3144  0.1048  0.0000  0.0000  0.0000  0.0000  0.0000 </r>
       </set>
       <set comment="band 5">
        <r>  0.0000  0.0001  0.0001  0.0000  0.1733  0.0005  0.6232  0.0011  0.0360 </r>
        <r>  0.0000  0.0281  0.0422  0.0141  0.0000  0.0000  0.0000  0.0000  0.0000 </r>
       </set>
       <set comment="band 6">
        <r>  0.0005  0.0000  0.0003  0.0012  0.0408  0.0000  0.0539  0.4265  0.4041 </r>
        <r>  0.0058  0.0000  0.0028  0.0101  0.0000  0.0000  0.0000  0.0000  0.0000 </r>
       </set>
       <set comment="band 7">
        <r>  0.0047  0.0002  0.0002  0.0022  0.3614  0.3642  0.0822  0.0039  0.0445 </r>
        <r>  0.0089  0.0098  0.0039  0.0616  0.0000  0.0000  0.0000  0.0000  0.0000 </r>
       </set>
       <set comment="band 8">
        <r>  0.0000  0.0000  0.0000  0.0000  0.0553  0.1584  0.0001  0.3167  0.4198 </r>
        <r>  0.0000  0.0065  0.0098  0.0033  0.0000  0.0000  0.0000  0.0000  0.0000 </r>
       </set>
       <set comment="band 9">
        <r>  0.0044  0.0000  0.0006  0.0019  0.1938  0.3272  0.0721  0.1687  0.0226 </r>
        <r>  0.0010  0.0995  0.0745  0.0007  0.0000  0.0000  0.0000  0.0000  0.0000 </r>
       </set>
       <set comment="band 10">
        <r>  0.4072  0.0007  0.0080  0.0371  0.0023  0.0001  0.0023  0.0113  0.0131 </r>
        <r>  0.0102  0.0014  0.0327  0.1347  0.0000  0.0000  0.0000  0.0000  0.0000 </r>
       </set>
       <set comment="band 11">
        <r>  0.1741  0.0202  0.0195  0.1959  0.0000  0.0009  0.0004  0.0073  0.0089 </r>
        <r>  0.0074  0.0588  0.0164  0.0148  0.0000  0.0000  0.0000  0.0000  0.0000 </r>
       </set>
       <set comment="band 12">
        <r>  0.0000  0.0803  0.1204  0.0401  0.0254  0.0013  0.0645  0.0027  0.0001 </r>
        <r>  0.0000  0.0440  0.0660  0.0220  0.0000  0.0000  0.0000  0.0000  0.0000 </r>
       </set>
       <set comment="band 13">
        <r>  0.0000  0.2278  0.1819  0.0041  0.0249  0.0069  0.0067  0.0009  0.0004 </r>
        <r>  0.0248  0.0025  0.0047  0.0357  0.0000  0.0000  0.0000  0.0000  0.0000 </r>
       </set>
       <set comment="band 14">
        <r>  0.0000  0.0392  0.0587  0.0196  0.0297  0.0006  0.1179  0.0013  0.0115 </r>
        <r>  0.0000  0.0105  0.0158  0.0053  0.0000  0.0000  0.0000  0.0000  0.0000 </r>
       </set>
      </set>
     </set>
    </set>
   </array>
  </projected>
 </calculation>
 <structure name="finalpos" >
  <crystal>
   <varray name="basis" >
    <v>       3.01395775       0.00000000       1.74010806 </v>
    <v>       1.00465292       2.84158622       1.74010806 </v>
    <v>      -0.00000002      -0.00000001       3.48021917 </v>
   </varray>
   <i name="volume">     29.80606162 </i>
   <varray name="rec_basis" >
    <v>       0.33178965      -0.11730541       0.00000000 </v>
    <v>      -0.00000000       0.35191612       0.00000000 </v>
    <v>      -0.16589468      -0.11730525       0.28733822 </v>
   </varray>
  </crystal>
  <varray name="positions" >
   <v>       0.00000000       0.00000000       0.00000000 </v>
   <v>       0.50000000       0.50000000       0.50000000 </v>
  </varray>
 </structure>
</modeling>
