 vasp.5.4.4.18Apr17-6-g9f103f2a35 (build Jan 25 2021 16:16:55) complex          
  
 executed on             LinuxIFC date 2022.02.15  17:07:51
 running on    4 total cores
 distrk:  each k-point on    4 cores,    1 groups
 distr:  one band on NCORES_PER_BAND=   1 cores,    4 groups


--------------------------------------------------------------------------------------------------------


 INCAR:
 POTCAR:    PAW_PBE Al 04Jan2001                  
 POTCAR:    PAW_PBE N 08Apr2002                   
 POTCAR:    PAW_PBE Al 04Jan2001                  
   SHA256 =  17880443556af62b473fe41b62a467bd001ad55d2cabe504a3f22e34d4e9db96 Al
   COPYR  = (c) Copyright 04Jan2001 Georg Kresse                                
   COPYR  = This file is part of the software VASP. Any use, copying, and all ot
   COPYR  = If you do not have a valid VASP license, you may not use, copy or di
   VRHFIN =Al: s2p1                                                             
   LEXCH  = PE                                                                  
   EATOM  =    53.5387 eV,    3.9350 Ry                                         
                                                                                
   TITEL  = PAW_PBE Al 04Jan2001                                                
   LULTRA =        F    use ultrasoft PP ?                                      
   IUNSCR =        1    unscreen: 0-lin 1-nonlin 2-no                           
   RPACOR =    1.500    partial core radius                                     
   POMASS =   26.981; ZVAL   =    3.000    mass and valenz                      
   RCORE  =    1.900    outmost cutoff radius                                   
   RWIGS  =    2.650; RWIGS  =    1.402    wigner-seitz radius (au A)           
   ENMAX  =  240.300; ENMIN  =  180.225 eV                                      
   ICORE  =        2    local potential                                         
   LCOR   =        T    correct aug charges                                     
   LPAW   =        T    paw PP                                                  
   EAUG   =  291.052                                                            
   DEXC   =    0.000                                                            
   RMAX   =    1.939    core radius for proj-oper                               
   RAUG   =    1.300    factor for augmentation sphere                          
   RDEP   =    1.966    radius for radial grids                                 
   RDEPT  =    1.856    core radius for aug-charge                              
                                                                                
   Atomic configuration                                                         
    6 entries                                                                   
     n  l   j            E        occ.                                          
     1  0  0.50     -1511.1048   2.0000                                         
     2  0  0.50      -108.1629   2.0000                                         
     2  1  1.50       -69.6402   6.0000                                         
     3  0  0.50        -7.7528   2.0000                                         
     3  1  1.50        -2.7121   1.0000                                         
     3  2  2.50        -2.7212   0.0000                                         
   Description                                                                  
     l       E           TYP  RCUT    TYP  RCUT                                 
     0     -7.7528455     23  1.900                                             
     0     -3.3096929     23  1.900                                             
     1     -2.7120682     23  1.900                                             
     1     13.6058260     23  1.900                                             
     2     -2.7211652      7  1.900                                             
  local pseudopotential read in
  partial core-charges read in
  partial kinetic energy density read in
  atomic valenz-charges read in
  non local Contribution for L=           0  read in
    real space projection operators read in
  non local Contribution for L=           0  read in
    real space projection operators read in
  non local Contribution for L=           1  read in
    real space projection operators read in
  non local Contribution for L=           1  read in
    real space projection operators read in
    PAW grid and wavefunctions read in
 
   number of l-projection  operators is LMAX  =           4
   number of lm-projection operators is LMMAX =           8
 
 POTCAR:    PAW_PBE N 08Apr2002                   
   SHA256 =  e053789ff3a61a86a1b75d8a110fcc91f86041011e7b0817c7c99e4e8a6349d7 N/
   COPYR  = (c) Copyright 08Apr2002 Georg Kresse                                
   COPYR  = This file is part of the software VASP. Any use, copying, and all ot
   COPYR  = If you do not have a valid VASP license, you may not use, copy or di
   VRHFIN =N: s2p3                                                              
   LEXCH  = PE                                                                  
   EATOM  =   264.5486 eV,   19.4438 Ry                                         
                                                                                
   TITEL  = PAW_PBE N 08Apr2002                                                 
   LULTRA =        F    use ultrasoft PP ?                                      
   IUNSCR =        1    unscreen: 0-lin 1-nonlin 2-no                           
   RPACOR =    1.200    partial core radius                                     
   POMASS =   14.001; ZVAL   =    5.000    mass and valenz                      
   RCORE  =    1.500    outmost cutoff radius                                   
   RWIGS  =    1.400; RWIGS  =    0.741    wigner-seitz radius (au A)           
   ENMAX  =  400.000; ENMIN  =  300.000 eV                                      
   ICORE  =        2    local potential                                         
   LCOR   =        T    correct aug charges                                     
   LPAW   =        T    paw PP                                                  
   EAUG   =  627.112                                                            
   DEXC   =    0.000                                                            
   RMAX   =    1.529    core radius for proj-oper                               
   RAUG   =    1.300    factor for augmentation sphere                          
   RDEP   =    1.514    radius for radial grids                                 
   RDEPT  =    1.338    core radius for aug-charge                              
                                                                                
   Atomic configuration                                                         
    4 entries                                                                   
     n  l   j            E        occ.                                          
     1  0  0.50      -384.7179   2.0000                                         
     2  0  0.50       -18.5828   2.0000                                         
     2  1  0.50        -7.0898   3.0000                                         
     3  2  1.50        -6.8029   0.0000                                         
   Description                                                                  
     l       E           TYP  RCUT    TYP  RCUT                                 
     0    -18.5828119     23  1.200                                             
     0    -13.5018863     23  1.200                                             
     1     -7.0897853     23  1.500                                             
     1      9.5240782     23  1.500                                             
     2     -6.8029130      7  1.500                                             
  local pseudopotential read in
  partial core-charges read in
  partial kinetic energy density read in
  atomic valenz-charges read in
  non local Contribution for L=           0  read in
    real space projection operators read in
  non local Contribution for L=           0  read in
    real space projection operators read in
  non local Contribution for L=           1  read in
    real space projection operators read in
  non local Contribution for L=           1  read in
    real space projection operators read in
    PAW grid and wavefunctions read in
 
   number of l-projection  operators is LMAX  =           4
   number of lm-projection operators is LMMAX =           8
 
  PAW_PBE Al 04Jan2001                  :
 energy of atom  1       EATOM=  -53.5387
 kinetic energy error for atom=    0.0005 (will be added to EATOM!!)
  PAW_PBE N 08Apr2002                   :
 energy of atom  2       EATOM= -264.5486
 kinetic energy error for atom=    0.0736 (will be added to EATOM!!)
 
 
 POSCAR: Al2 N2                                  
  positions in direct lattice
  No initial velocities read in
 exchange correlation table for  LEXCH =        8
   RHO(1)=    0.500       N(1)  =     2000
   RHO(2)=  100.500       N(2)  =     4000
 


--------------------------------------------------------------------------------------------------------


 ion  position               nearest neighbor table
   1  0.667  0.333  0.499-   4 1.90   4 1.90   4 1.90   3 1.91   2 3.09   2 3.09   2 3.09   2 3.09
                             2 3.09   2 3.09
   2  0.333  0.667  0.999-   3 1.90   3 1.90   3 1.90   4 1.91   1 3.09   1 3.09   1 3.09   1 3.09
                             1 3.09   1 3.09
   3  0.667  0.333  0.881-   2 1.90   2 1.90   2 1.90   1 1.91
   4  0.333  0.667  0.381-   1 1.90   1 1.90   1 1.90   2 1.91
 
  LATTYP: Found a hexagonal cell.
 ALAT       =     3.1285880000
 C/A-ratio  =     1.6035844285
  
  Lattice vectors:
  
 A1 = (   1.5642940000,  -2.7094370000,   0.0000000000)
 A2 = (   1.5642940000,   2.7094370000,   0.0000000000)
 A3 = (   0.0000000000,   0.0000000000,   5.0169550000)


Analysis of symmetry for initial positions (statically):
=====================================================================
 Subroutine PRICEL returns:
 Original cell was already a primitive cell.
 

 Routine SETGRP: Setting up the symmetry group for a 
 hexagonal supercell.


 Subroutine GETGRP returns: Found 12 space group operations
 (whereof  6 operations were pure point group operations)
 out of a pool of 24 trial point group operations.


The static configuration has the point symmetry C_3v.
 The point group associated with its full space group is C_6v.


Analysis of symmetry for dynamics (positions and initial velocities):
=====================================================================
 Subroutine PRICEL returns:
 Original cell was already a primitive cell.
 

 Routine SETGRP: Setting up the symmetry group for a 
 hexagonal supercell.


 Subroutine GETGRP returns: Found 12 space group operations
 (whereof  6 operations were pure point group operations)
 out of a pool of 24 trial point group operations.


The dynamic configuration has the point symmetry C_3v.
 The point group associated with its full space group is C_6v.


 Subroutine INISYM returns: Found 12 space group operations
 (whereof  6 operations are pure point group operations),
 and found     1 'primitive' translations

 
 
 KPOINTS: K-Points                                

Automatic generation of k-mesh.
Space group operators:
 irot       det(A)        alpha          n_x          n_y          n_z        tau_x        tau_y        tau_z
    1     1.000000     0.000000     1.000000     0.000000     0.000000     0.000000     0.000000     0.000000
    2     1.000000   120.000000     0.000000     0.000000    -1.000000     0.000000     0.000000     0.000000
    3     1.000000   120.000000     0.000000     0.000000     1.000000     0.000000     0.000000     0.000000
    4    -1.000000   180.000000     0.500000    -0.866025     0.000000     0.000000     0.000000     0.000000
    5    -1.000000   180.000000    -0.500000    -0.866025     0.000000     0.000000     0.000000     0.000000
    6    -1.000000   179.999999     1.000000     0.000000     0.000000     0.000000     0.000000     0.000000
    7     1.000000    60.000000     0.000000     0.000000    -1.000000     0.000001    -0.000000     0.500000
    8     1.000000   180.000000     0.000000     0.000000     1.000000     0.000000     0.000000     0.500000
    9     1.000000    60.000000     0.000000     0.000000     1.000000     0.000000     0.000000     0.500000
   10    -1.000000   180.000000     0.000000     1.000000     0.000000     0.000000     0.000000     0.500000
   11    -1.000000   180.000000     0.866025     0.500000     0.000000     0.000001    -0.000000     0.500000
   12    -1.000000   180.000000     0.866025    -0.500000     0.000000     0.000000     0.000000     0.500000
 
 Subroutine IBZKPT returns following result:
 ===========================================
 
 Found     96 irreducible k-points:
 
 Following reciprocal coordinates:
            Coordinates               Weight
  0.000000  0.000000  0.000000      1.000000
  0.090909  0.000000  0.000000      6.000000
  0.181818  0.000000  0.000000      6.000000
  0.272727  0.000000  0.000000      6.000000
  0.363636  0.000000  0.000000      6.000000
  0.454545  0.000000  0.000000      6.000000
  0.090909  0.090909  0.000000      6.000000
  0.181818  0.090909  0.000000     12.000000
  0.272727  0.090909  0.000000     12.000000
  0.363636  0.090909  0.000000     12.000000
  0.454545  0.090909  0.000000      6.000000
  0.181818  0.181818  0.000000      6.000000
  0.272727  0.181818  0.000000     12.000000
  0.363636  0.181818  0.000000     12.000000
  0.272727  0.272727  0.000000      6.000000
  0.363636  0.272727  0.000000      6.000000
  0.000000  0.000000  0.090909      2.000000
  0.090909  0.000000  0.090909     12.000000
  0.181818  0.000000  0.090909     12.000000
  0.272727  0.000000  0.090909     12.000000
  0.363636  0.000000  0.090909     12.000000
  0.454545  0.000000  0.090909     12.000000
  0.090909  0.090909  0.090909     12.000000
  0.181818  0.090909  0.090909     24.000000
  0.272727  0.090909  0.090909     24.000000
  0.363636  0.090909  0.090909     24.000000
  0.454545  0.090909  0.090909     12.000000
  0.181818  0.181818  0.090909     12.000000
  0.272727  0.181818  0.090909     24.000000
  0.363636  0.181818  0.090909     24.000000
  0.272727  0.272727  0.090909     12.000000
  0.363636  0.272727  0.090909     12.000000
  0.000000  0.000000  0.181818      2.000000
  0.090909  0.000000  0.181818     12.000000
  0.181818  0.000000  0.181818     12.000000
  0.272727  0.000000  0.181818     12.000000
  0.363636  0.000000  0.181818     12.000000
  0.454545  0.000000  0.181818     12.000000
  0.090909  0.090909  0.181818     12.000000
  0.181818  0.090909  0.181818     24.000000
  0.272727  0.090909  0.181818     24.000000
  0.363636  0.090909  0.181818     24.000000
  0.454545  0.090909  0.181818     12.000000
  0.181818  0.181818  0.181818     12.000000
  0.272727  0.181818  0.181818     24.000000
  0.363636  0.181818  0.181818     24.000000
  0.272727  0.272727  0.181818     12.000000
  0.363636  0.272727  0.181818     12.000000
  0.000000  0.000000  0.272727      2.000000
  0.090909  0.000000  0.272727     12.000000
  0.181818  0.000000  0.272727     12.000000
  0.272727  0.000000  0.272727     12.000000
  0.363636  0.000000  0.272727     12.000000
  0.454545  0.000000  0.272727     12.000000
  0.090909  0.090909  0.272727     12.000000
  0.181818  0.090909  0.272727     24.000000
  0.272727  0.090909  0.272727     24.000000
  0.363636  0.090909  0.272727     24.000000
  0.454545  0.090909  0.272727     12.000000
  0.181818  0.181818  0.272727     12.000000
  0.272727  0.181818  0.272727     24.000000
  0.363636  0.181818  0.272727     24.000000
  0.272727  0.272727  0.272727     12.000000
  0.363636  0.272727  0.272727     12.000000
  0.000000  0.000000  0.363636      2.000000
  0.090909  0.000000  0.363636     12.000000
  0.181818  0.000000  0.363636     12.000000
  0.272727  0.000000  0.363636     12.000000
  0.363636  0.000000  0.363636     12.000000
  0.454545  0.000000  0.363636     12.000000
  0.090909  0.090909  0.363636     12.000000
  0.181818  0.090909  0.363636     24.000000
  0.272727  0.090909  0.363636     24.000000
  0.363636  0.090909  0.363636     24.000000
  0.454545  0.090909  0.363636     12.000000
  0.181818  0.181818  0.363636     12.000000
  0.272727  0.181818  0.363636     24.000000
  0.363636  0.181818  0.363636     24.000000
  0.272727  0.272727  0.363636     12.000000
  0.363636  0.272727  0.363636     12.000000
  0.000000  0.000000  0.454545      2.000000
  0.090909  0.000000  0.454545     12.000000
  0.181818  0.000000  0.454545     12.000000
  0.272727  0.000000  0.454545     12.000000
  0.363636  0.000000  0.454545     12.000000
  0.454545  0.000000  0.454545     12.000000
  0.090909  0.090909  0.454545     12.000000
  0.181818  0.090909  0.454545     24.000000
  0.272727  0.090909  0.454545     24.000000
  0.363636  0.090909  0.454545     24.000000
  0.454545  0.090909  0.454545     12.000000
  0.181818  0.181818  0.454545     12.000000
  0.272727  0.181818  0.454545     24.000000
  0.363636  0.181818  0.454545     24.000000
  0.272727  0.272727  0.454545     12.000000
  0.363636  0.272727  0.454545     12.000000
 
 Following cartesian coordinates:
            Coordinates               Weight
  0.000000  0.000000  0.000000      1.000000
  0.029058 -0.016776  0.000000      6.000000
  0.058115 -0.033553  0.000000      6.000000
  0.087173 -0.050329  0.000000      6.000000
  0.116230 -0.067106  0.000000      6.000000
  0.145288 -0.083882  0.000000      6.000000
  0.058115  0.000000  0.000000      6.000000
  0.087173 -0.016776  0.000000     12.000000
  0.116230 -0.033553  0.000000     12.000000
  0.145288 -0.050329  0.000000     12.000000
  0.174345 -0.067106  0.000000      6.000000
  0.116230  0.000000  0.000000      6.000000
  0.145288 -0.016776  0.000000     12.000000
  0.174345 -0.033553  0.000000     12.000000
  0.174345 -0.000000  0.000000      6.000000
  0.203403 -0.016776  0.000000      6.000000
  0.000000  0.000000  0.018120      2.000000
  0.029058 -0.016776  0.018120     12.000000
  0.058115 -0.033553  0.018120     12.000000
  0.087173 -0.050329  0.018120     12.000000
  0.116230 -0.067106  0.018120     12.000000
  0.145288 -0.083882  0.018120     12.000000
  0.058115  0.000000  0.018120     12.000000
  0.087173 -0.016776  0.018120     24.000000
  0.116230 -0.033553  0.018120     24.000000
  0.145288 -0.050329  0.018120     24.000000
  0.174345 -0.067106  0.018120     12.000000
  0.116230  0.000000  0.018120     12.000000
  0.145288 -0.016776  0.018120     24.000000
  0.174345 -0.033553  0.018120     24.000000
  0.174345 -0.000000  0.018120     12.000000
  0.203403 -0.016776  0.018120     12.000000
  0.000000  0.000000  0.036241      2.000000
  0.029058 -0.016776  0.036241     12.000000
  0.058115 -0.033553  0.036241     12.000000
  0.087173 -0.050329  0.036241     12.000000
  0.116230 -0.067106  0.036241     12.000000
  0.145288 -0.083882  0.036241     12.000000
  0.058115  0.000000  0.036241     12.000000
  0.087173 -0.016776  0.036241     24.000000
  0.116230 -0.033553  0.036241     24.000000
  0.145288 -0.050329  0.036241     24.000000
  0.174345 -0.067106  0.036241     12.000000
  0.116230  0.000000  0.036241     12.000000
  0.145288 -0.016776  0.036241     24.000000
  0.174345 -0.033553  0.036241     24.000000
  0.174345 -0.000000  0.036241     12.000000
  0.203403 -0.016776  0.036241     12.000000
  0.000000  0.000000  0.054361      2.000000
  0.029058 -0.016776  0.054361     12.000000
  0.058115 -0.033553  0.054361     12.000000
  0.087173 -0.050329  0.054361     12.000000
  0.116230 -0.067106  0.054361     12.000000
  0.145288 -0.083882  0.054361     12.000000
  0.058115  0.000000  0.054361     12.000000
  0.087173 -0.016776  0.054361     24.000000
  0.116230 -0.033553  0.054361     24.000000
  0.145288 -0.050329  0.054361     24.000000
  0.174345 -0.067106  0.054361     12.000000
  0.116230  0.000000  0.054361     12.000000
  0.145288 -0.016776  0.054361     24.000000
  0.174345 -0.033553  0.054361     24.000000
  0.174345 -0.000000  0.054361     12.000000
  0.203403 -0.016776  0.054361     12.000000
  0.000000  0.000000  0.072481      2.000000
  0.029058 -0.016776  0.072481     12.000000
  0.058115 -0.033553  0.072481     12.000000
  0.087173 -0.050329  0.072481     12.000000
  0.116230 -0.067106  0.072481     12.000000
  0.145288 -0.083882  0.072481     12.000000
  0.058115  0.000000  0.072481     12.000000
  0.087173 -0.016776  0.072481     24.000000
  0.116230 -0.033553  0.072481     24.000000
  0.145288 -0.050329  0.072481     24.000000
  0.174345 -0.067106  0.072481     12.000000
  0.116230  0.000000  0.072481     12.000000
  0.145288 -0.016776  0.072481     24.000000
  0.174345 -0.033553  0.072481     24.000000
  0.174345 -0.000000  0.072481     12.000000
  0.203403 -0.016776  0.072481     12.000000
  0.000000  0.000000  0.090602      2.000000
  0.029058 -0.016776  0.090602     12.000000
  0.058115 -0.033553  0.090602     12.000000
  0.087173 -0.050329  0.090602     12.000000
  0.116230 -0.067106  0.090602     12.000000
  0.145288 -0.083882  0.090602     12.000000
  0.058115  0.000000  0.090602     12.000000
  0.087173 -0.016776  0.090602     24.000000
  0.116230 -0.033553  0.090602     24.000000
  0.145288 -0.050329  0.090602     24.000000
  0.174345 -0.067106  0.090602     12.000000
  0.116230  0.000000  0.090602     12.000000
  0.145288 -0.016776  0.090602     24.000000
  0.174345 -0.033553  0.090602     24.000000
  0.174345 -0.000000  0.090602     12.000000
  0.203403 -0.016776  0.090602     12.000000
 


--------------------------------------------------------------------------------------------------------




 Dimension of arrays:
   k-points           NKPTS =     96   k-points in BZ     NKDIM =     96   number of bands    NBANDS=     12
   number of dos      NEDOS =    301   number of ions     NIONS =      4
   non local maximal  LDIM  =      4   non local SUM 2l+1 LMDIM =      8
   total plane-waves  NPLWV =  14400
   max r-space proj   IRMAX =      1   max aug-charges    IRDMAX=  13376
   dimension x,y,z NGX =    20 NGY =   20 NGZ =   36
   dimension x,y,z NGXF=    40 NGYF=   40 NGZF=   72
   support grid    NGXF=    40 NGYF=   40 NGZF=   72
   ions per type =               2   2
   NGX,Y,Z   is equivalent  to a cutoff of  10.63, 10.63, 11.93 a.u.
   NGXF,Y,Z  is equivalent  to a cutoff of  21.26, 21.26, 23.86 a.u.

 SYSTEM =  unknown system                          
 POSCAR =  Al2 N2                                  

 Startparameter for this run:
   NWRITE =      2    write-flag & timer
   PREC   = accura    normal or accurate (medium, high low for compatibility)
   ISTART =      0    job   : 0-new  1-cont  2-samecut
   ICHARG =      2    charge: 1-file 2-atom 10-const
   ISPIN  =      1    spin polarized calculation?
   LNONCOLLINEAR =      F non collinear calculations
   LSORBIT =      F    spin-orbit coupling
   INIWAV =      1    electr: 0-lowe 1-rand  2-diag
   LASPH  =      F    aspherical Exc in radial PAW
   METAGGA=      F    non-selfconsistent MetaGGA calc.

 Electronic Relaxation 1
   ENCUT  =  400.0 eV  29.40 Ry    5.42 a.u.   5.10  5.10  8.18*2*pi/ulx,y,z
   ENINI  =  400.0     initial cutoff
   ENAUG  =  627.1 eV  augmentation charge cutoff
   NELM   =     60;   NELMIN=  2; NELMDL= -5     # of ELM steps 
   EDIFF  = 0.1E-05   stopping-criterion for ELM
   LREAL  =      F    real-space projection
   NLSPLINE    = F    spline interpolate recip. space projectors
   LCOMPAT=      F    compatible to vasp.4.4
   GGA_COMPAT  = T    GGA compatible to vasp.4.4-vasp.4.6
   LMAXPAW     = -100 max onsite density
   LMAXMIX     =    2 max onsite mixed and CHGCAR
   VOSKOWN=      0    Vosko Wilk Nusair interpolation
   ROPT   =    0.00000   0.00000
 Ionic relaxation
   EDIFFG = 0.1E-04   stopping-criterion for IOM
   NSW    =      0    number of steps for IOM
   NBLOCK =      1;   KBLOCK =      1    inner block; outer block 
   IBRION =     -1    ionic relax: 0-MD 1-quasi-New 2-CG
   NFREE  =      0    steps in history (QN), initial steepest desc. (CG)
   ISIF   =      2    stress and relaxation
   IWAVPR =     10    prediction:  0-non 1-charg 2-wave 3-comb
   ISYM   =      2    0-nonsym 1-usesym 2-fastsym
   LCORR  =      T    Harris-Foulkes like correction to forces

   POTIM  = 0.5000    time-step for ionic-motion
   TEIN   =    0.0    initial temperature
   TEBEG  =    0.0;   TEEND  =   0.0 temperature during run
   SMASS  =  -3.00    Nose mass-parameter (am)
   estimated Nose-frequenzy (Omega)   =  0.10E-29 period in steps =****** mass=  -0.224E-27a.u.
   SCALEE = 1.0000    scale energy and forces
   NPACO  =    256;   APACO  = 16.0  distance and # of slots for P.C.
   PSTRESS=    0.0 pullay stress

  Mass of Ions in am
   POMASS =  26.98 14.00
  Ionic Valenz
   ZVAL   =   3.00  5.00
  Atomic Wigner-Seitz radii
   RWIGS  =  -1.00 -1.00
  virtual crystal weights 
   VCA    =   1.00  1.00
   NELECT =      16.0000    total number of electrons
   NUPDOWN=      -1.0000    fix difference up-down

 DOS related values:
   EMIN   =  10.00;   EMAX   =-10.00  energy-range for DOS
   EFERMI =   0.00
   ISMEAR =     0;   SIGMA  =   0.05  broadening in eV -4-tet -1-fermi 0-gaus

 Electronic relaxation 2 (details)
   IALGO  =     38    algorithm
   LDIAG  =      T    sub-space diagonalisation (order eigenvalues)
   LSUBROT=      F    optimize rotation matrix (better conditioning)
   TURBO    =      0    0=normal 1=particle mesh
   IRESTART =      0    0=no restart 2=restart with 2 vectors
   NREBOOT  =      0    no. of reboots
   NMIN     =      0    reboot dimension
   EREF     =   0.00    reference energy to select bands
   IMIX   =      4    mixing-type and parameters
     AMIX     =   0.40;   BMIX     =  1.00
     AMIX_MAG =   1.60;   BMIX_MAG =  1.00
     AMIN     =   0.10
     WC   =   100.;   INIMIX=   1;  MIXPRE=   1;  MAXMIX= -45

 Intra band minimization:
   WEIMIN = 0.0000     energy-eigenvalue tresh-hold
   EBREAK =  0.21E-07  absolut break condition
   DEPER  =   0.30     relativ break condition  

   TIME   =   0.40     timestep for ELM

  volume/ion in A,a.u.               =      10.63        71.75
  Fermi-wavevector in a.u.,A,eV,Ry     =   1.181841  2.233355 19.003903  1.396747
  Thomas-Fermi vector in A             =   2.318106
 
 Write flags
   LWAVE        =      T    write WAVECAR
   LDOWNSAMPLE  =      F    k-point downsampling of WAVECAR
   LCHARG       =      T    write CHGCAR
   LVTOT        =      F    write LOCPOT, total local potential
   LVHAR        =      F    write LOCPOT, Hartree potential only
   LELF         =      F    write electronic localiz. function (ELF)
   LORBIT       =     11    0 simple, 1 ext, 2 COOP (PROOUT), +10 PAW based schemes


 Dipole corrections
   LMONO  =      F    monopole corrections only (constant potential shift)
   LDIPOL =      F    correct potential (dipole corrections)
   IDIPOL =      0    1-x, 2-y, 3-z, 4-all directions 
   EPSILON=  1.0000000 bulk dielectric constant

 Exchange correlation treatment:
   GGA     =    --    GGA type
   LEXCH   =     8    internal setting for exchange type
   VOSKOWN=      0    Vosko Wilk Nusair interpolation
   LHFCALC =     F    Hartree Fock is set to
   LHFONE  =     F    Hartree Fock one center treatment
   AEXX    =    0.0000 exact exchange contribution

 Linear response parameters
   LEPSILON=     F    determine dielectric tensor
   LRPA    =     F    only Hartree local field effects (RPA)
   LNABLA  =     F    use nabla operator in PAW spheres
   LVEL    =     F    velocity operator in full k-point grid
   LINTERFAST=   F  fast interpolation
   KINTER  =     0    interpolate to denser k-point grid
   CSHIFT  =0.1000    complex shift for real part using Kramers Kronig
   OMEGAMAX=  -1.0    maximum frequency
   DEG_THRESHOLD= 0.2000000E-02 threshold for treating states as degnerate
   RTIME   =   -0.100 relaxation time in fs
  (WPLASMAI=    0.000 imaginary part of plasma frequency in eV, 0.658/RTIME)
   DFIELD  = 0.0000000 0.0000000 0.0000000 field for delta impulse in time
 
 Orbital magnetization related:
   ORBITALMAG=     F  switch on orbital magnetization
   LCHIMAG   =     F  perturbation theory with respect to B field
   DQ        =  0.001000  dq finite difference perturbation B field
   LLRAUG    =     F  two centre corrections for induced B field



--------------------------------------------------------------------------------------------------------


 Static calculation
 charge density and potential will be updated during run
 non-spin polarized calculation
 Variant of blocked Davidson
 Davidson routine will perform the subspace rotation
 perform sub-space diagonalisation
    after iterative eigenvector-optimisation
 modified Broyden-mixing scheme, WC =      100.0
 initial mixing is a Kerker type mixing with AMIX =  0.4000 and BMIX =      1.0000
 Hartree-type preconditioning will be used
 using additional bands            4
 reciprocal scheme for non local part
 use partial core corrections
 calculate Harris-corrections to forces 
   (improved forces if not selfconsistent)
 use gradient corrections 
 use of overlap-Matrix (Vanderbilt PP)
 Gauss-broadening in eV      SIGMA  =   0.05


--------------------------------------------------------------------------------------------------------


  energy-cutoff  :      400.00
  volume of cell :       42.53
      direct lattice vectors                 reciprocal lattice vectors
     1.564294000 -2.709437000  0.000000000     0.319633010 -0.184540183  0.000000000
     1.564294000  2.709437000  0.000000000     0.319633010  0.184540183  0.000000000
     0.000000000  0.000000000  5.016955000     0.000000000  0.000000000  0.199324092

  length of vectors
     3.128588272  3.128588272  5.016955000     0.369080398  0.369080398  0.199324092


 
 k-points in units of 2pi/SCALE and weight: K-Points                                
   0.00000000  0.00000000  0.00000000       0.001
   0.02905755 -0.01677638  0.00000000       0.005
   0.05811509 -0.03355276  0.00000000       0.005
   0.08717264 -0.05032914  0.00000000       0.005
   0.11623019 -0.06710552  0.00000000       0.005
   0.14528773 -0.08388190  0.00000000       0.005
   0.05811509  0.00000000  0.00000000       0.005
   0.08717264 -0.01677638  0.00000000       0.009
   0.11623019 -0.03355276  0.00000000       0.009
   0.14528773 -0.05032914  0.00000000       0.009
   0.17434528 -0.06710552  0.00000000       0.005
   0.11623019  0.00000000  0.00000000       0.005
   0.14528773 -0.01677638  0.00000000       0.009
   0.17434528 -0.03355276  0.00000000       0.009
   0.17434528 -0.00000000  0.00000000       0.005
   0.20340282 -0.01677638  0.00000000       0.005
   0.00000000  0.00000000  0.01812037       0.002
   0.02905755 -0.01677638  0.01812037       0.009
   0.05811509 -0.03355276  0.01812037       0.009
   0.08717264 -0.05032914  0.01812037       0.009
   0.11623019 -0.06710552  0.01812037       0.009
   0.14528773 -0.08388190  0.01812037       0.009
   0.05811509  0.00000000  0.01812037       0.009
   0.08717264 -0.01677638  0.01812037       0.018
   0.11623019 -0.03355276  0.01812037       0.018
   0.14528773 -0.05032914  0.01812037       0.018
   0.17434528 -0.06710552  0.01812037       0.009
   0.11623019  0.00000000  0.01812037       0.009
   0.14528773 -0.01677638  0.01812037       0.018
   0.17434528 -0.03355276  0.01812037       0.018
   0.17434528 -0.00000000  0.01812037       0.009
   0.20340282 -0.01677638  0.01812037       0.009
   0.00000000  0.00000000  0.03624074       0.002
   0.02905755 -0.01677638  0.03624074       0.009
   0.05811509 -0.03355276  0.03624074       0.009
   0.08717264 -0.05032914  0.03624074       0.009
   0.11623019 -0.06710552  0.03624074       0.009
   0.14528773 -0.08388190  0.03624074       0.009
   0.05811509  0.00000000  0.03624074       0.009
   0.08717264 -0.01677638  0.03624074       0.018
   0.11623019 -0.03355276  0.03624074       0.018
   0.14528773 -0.05032914  0.03624074       0.018
   0.17434528 -0.06710552  0.03624074       0.009
   0.11623019  0.00000000  0.03624074       0.009
   0.14528773 -0.01677638  0.03624074       0.018
   0.17434528 -0.03355276  0.03624074       0.018
   0.17434528 -0.00000000  0.03624074       0.009
   0.20340282 -0.01677638  0.03624074       0.009
   0.00000000  0.00000000  0.05436112       0.002
   0.02905755 -0.01677638  0.05436112       0.009
   0.05811509 -0.03355276  0.05436112       0.009
   0.08717264 -0.05032914  0.05436112       0.009
   0.11623019 -0.06710552  0.05436112       0.009
   0.14528773 -0.08388190  0.05436112       0.009
   0.05811509  0.00000000  0.05436112       0.009
   0.08717264 -0.01677638  0.05436112       0.018
   0.11623019 -0.03355276  0.05436112       0.018
   0.14528773 -0.05032914  0.05436112       0.018
   0.17434528 -0.06710552  0.05436112       0.009
   0.11623019  0.00000000  0.05436112       0.009
   0.14528773 -0.01677638  0.05436112       0.018
   0.17434528 -0.03355276  0.05436112       0.018
   0.17434528 -0.00000000  0.05436112       0.009
   0.20340282 -0.01677638  0.05436112       0.009
   0.00000000  0.00000000  0.07248149       0.002
   0.02905755 -0.01677638  0.07248149       0.009
   0.05811509 -0.03355276  0.07248149       0.009
   0.08717264 -0.05032914  0.07248149       0.009
   0.11623019 -0.06710552  0.07248149       0.009
   0.14528773 -0.08388190  0.07248149       0.009
   0.05811509  0.00000000  0.07248149       0.009
   0.08717264 -0.01677638  0.07248149       0.018
   0.11623019 -0.03355276  0.07248149       0.018
   0.14528773 -0.05032914  0.07248149       0.018
   0.17434528 -0.06710552  0.07248149       0.009
   0.11623019  0.00000000  0.07248149       0.009
   0.14528773 -0.01677638  0.07248149       0.018
   0.17434528 -0.03355276  0.07248149       0.018
   0.17434528 -0.00000000  0.07248149       0.009
   0.20340282 -0.01677638  0.07248149       0.009
   0.00000000  0.00000000  0.09060186       0.002
   0.02905755 -0.01677638  0.09060186       0.009
   0.05811509 -0.03355276  0.09060186       0.009
   0.08717264 -0.05032914  0.09060186       0.009
   0.11623019 -0.06710552  0.09060186       0.009
   0.14528773 -0.08388190  0.09060186       0.009
   0.05811509  0.00000000  0.09060186       0.009
   0.08717264 -0.01677638  0.09060186       0.018
   0.11623019 -0.03355276  0.09060186       0.018
   0.14528773 -0.05032914  0.09060186       0.018
   0.17434528 -0.06710552  0.09060186       0.009
   0.11623019  0.00000000  0.09060186       0.009
   0.14528773 -0.01677638  0.09060186       0.018
   0.17434528 -0.03355276  0.09060186       0.018
   0.17434528 -0.00000000  0.09060186       0.009
   0.20340282 -0.01677638  0.09060186       0.009
 
 k-points in reciprocal lattice and weights: K-Points                                
   0.00000000  0.00000000  0.00000000       0.001
   0.09090909  0.00000000  0.00000000       0.005
   0.18181818  0.00000000  0.00000000       0.005
   0.27272727  0.00000000  0.00000000       0.005
   0.36363636  0.00000000  0.00000000       0.005
   0.45454545  0.00000000  0.00000000       0.005
   0.09090909  0.09090909  0.00000000       0.005
   0.18181818  0.09090909  0.00000000       0.009
   0.27272727  0.09090909  0.00000000       0.009
   0.36363636  0.09090909  0.00000000       0.009
   0.45454545  0.09090909  0.00000000       0.005
   0.18181818  0.18181818  0.00000000       0.005
   0.27272727  0.18181818  0.00000000       0.009
   0.36363636  0.18181818  0.00000000       0.009
   0.27272727  0.27272727  0.00000000       0.005
   0.36363636  0.27272727  0.00000000       0.005
   0.00000000  0.00000000  0.09090909       0.002
   0.09090909  0.00000000  0.09090909       0.009
   0.18181818  0.00000000  0.09090909       0.009
   0.27272727  0.00000000  0.09090909       0.009
   0.36363636  0.00000000  0.09090909       0.009
   0.45454545  0.00000000  0.09090909       0.009
   0.09090909  0.09090909  0.09090909       0.009
   0.18181818  0.09090909  0.09090909       0.018
   0.27272727  0.09090909  0.09090909       0.018
   0.36363636  0.09090909  0.09090909       0.018
   0.45454545  0.09090909  0.09090909       0.009
   0.18181818  0.18181818  0.09090909       0.009
   0.27272727  0.18181818  0.09090909       0.018
   0.36363636  0.18181818  0.09090909       0.018
   0.27272727  0.27272727  0.09090909       0.009
   0.36363636  0.27272727  0.09090909       0.009
   0.00000000  0.00000000  0.18181818       0.002
   0.09090909  0.00000000  0.18181818       0.009
   0.18181818  0.00000000  0.18181818       0.009
   0.27272727  0.00000000  0.18181818       0.009
   0.36363636  0.00000000  0.18181818       0.009
   0.45454545  0.00000000  0.18181818       0.009
   0.09090909  0.09090909  0.18181818       0.009
   0.18181818  0.09090909  0.18181818       0.018
   0.27272727  0.09090909  0.18181818       0.018
   0.36363636  0.09090909  0.18181818       0.018
   0.45454545  0.09090909  0.18181818       0.009
   0.18181818  0.18181818  0.18181818       0.009
   0.27272727  0.18181818  0.18181818       0.018
   0.36363636  0.18181818  0.18181818       0.018
   0.27272727  0.27272727  0.18181818       0.009
   0.36363636  0.27272727  0.18181818       0.009
   0.00000000  0.00000000  0.27272727       0.002
   0.09090909  0.00000000  0.27272727       0.009
   0.18181818  0.00000000  0.27272727       0.009
   0.27272727  0.00000000  0.27272727       0.009
   0.36363636  0.00000000  0.27272727       0.009
   0.45454545  0.00000000  0.27272727       0.009
   0.09090909  0.09090909  0.27272727       0.009
   0.18181818  0.09090909  0.27272727       0.018
   0.27272727  0.09090909  0.27272727       0.018
   0.36363636  0.09090909  0.27272727       0.018
   0.45454545  0.09090909  0.27272727       0.009
   0.18181818  0.18181818  0.27272727       0.009
   0.27272727  0.18181818  0.27272727       0.018
   0.36363636  0.18181818  0.27272727       0.018
   0.27272727  0.27272727  0.27272727       0.009
   0.36363636  0.27272727  0.27272727       0.009
   0.00000000  0.00000000  0.36363636       0.002
   0.09090909  0.00000000  0.36363636       0.009
   0.18181818  0.00000000  0.36363636       0.009
   0.27272727  0.00000000  0.36363636       0.009
   0.36363636  0.00000000  0.36363636       0.009
   0.45454545  0.00000000  0.36363636       0.009
   0.09090909  0.09090909  0.36363636       0.009
   0.18181818  0.09090909  0.36363636       0.018
   0.27272727  0.09090909  0.36363636       0.018
   0.36363636  0.09090909  0.36363636       0.018
   0.45454545  0.09090909  0.36363636       0.009
   0.18181818  0.18181818  0.36363636       0.009
   0.27272727  0.18181818  0.36363636       0.018
   0.36363636  0.18181818  0.36363636       0.018
   0.27272727  0.27272727  0.36363636       0.009
   0.36363636  0.27272727  0.36363636       0.009
   0.00000000  0.00000000  0.45454545       0.002
   0.09090909  0.00000000  0.45454545       0.009
   0.18181818  0.00000000  0.45454545       0.009
   0.27272727  0.00000000  0.45454545       0.009
   0.36363636  0.00000000  0.45454545       0.009
   0.45454545  0.00000000  0.45454545       0.009
   0.09090909  0.09090909  0.45454545       0.009
   0.18181818  0.09090909  0.45454545       0.018
   0.27272727  0.09090909  0.45454545       0.018
   0.36363636  0.09090909  0.45454545       0.018
   0.45454545  0.09090909  0.45454545       0.009
   0.18181818  0.18181818  0.45454545       0.009
   0.27272727  0.18181818  0.45454545       0.018
   0.36363636  0.18181818  0.45454545       0.018
   0.27272727  0.27272727  0.45454545       0.009
   0.36363636  0.27272727  0.45454545       0.009
 
 position of ions in fractional coordinates (direct lattice) 
   0.66666700  0.33333300  0.49928700
   0.33333300  0.66666700  0.99928700
   0.66666700  0.33333300  0.88071300
   0.33333300  0.66666700  0.38071300
 
 position of ions in cartesian coordinates  (Angst):
   1.56429400 -0.90314747  2.50490041
   1.56429400  0.90314747  5.01337791
   1.56429400 -0.90314747  4.41849749
   1.56429400  0.90314747  1.91001999
 


--------------------------------------------------------------------------------------------------------


 k-point  1 :   0.0000 0.0000 0.0000  plane waves:     773
 k-point  2 :   0.0909 0.0000 0.0000  plane waves:     757
 k-point  3 :   0.1818 0.0000 0.0000  plane waves:     775
 k-point  4 :   0.2727 0.0000 0.0000  plane waves:     773
 k-point  5 :   0.3636 0.0000 0.0000  plane waves:     781
 k-point  6 :   0.4545 0.0000 0.0000  plane waves:     768
 k-point  7 :   0.0909 0.0909 0.0000  plane waves:     757
 k-point  8 :   0.1818 0.0909 0.0000  plane waves:     775
 k-point  9 :   0.2727 0.0909 0.0000  plane waves:     776
 k-point 10 :   0.3636 0.0909 0.0000  plane waves:     771
 k-point 11 :   0.4545 0.0909 0.0000  plane waves:     778
 k-point 12 :   0.1818 0.1818 0.0000  plane waves:     777
 k-point 13 :   0.2727 0.1818 0.0000  plane waves:     775
 k-point 14 :   0.3636 0.1818 0.0000  plane waves:     774
 k-point 15 :   0.2727 0.2727 0.0000  plane waves:     773
 k-point 16 :   0.3636 0.2727 0.0000  plane waves:     773
 k-point 17 :   0.0000 0.0000 0.0909  plane waves:     767
 k-point 18 :   0.0909 0.0000 0.0909  plane waves:     761
 k-point 19 :   0.1818 0.0000 0.0909  plane waves:     766
 k-point 20 :   0.2727 0.0000 0.0909  plane waves:     768
 k-point 21 :   0.3636 0.0000 0.0909  plane waves:     778
 k-point 22 :   0.4545 0.0000 0.0909  plane waves:     768
 k-point 23 :   0.0909 0.0909 0.0909  plane waves:     759
 k-point 24 :   0.1818 0.0909 0.0909  plane waves:     774
 k-point 25 :   0.2727 0.0909 0.0909  plane waves:     775
 k-point 26 :   0.3636 0.0909 0.0909  plane waves:     776
 k-point 27 :   0.4545 0.0909 0.0909  plane waves:     774
 k-point 28 :   0.1818 0.1818 0.0909  plane waves:     775
 k-point 29 :   0.2727 0.1818 0.0909  plane waves:     774
 k-point 30 :   0.3636 0.1818 0.0909  plane waves:     771
 k-point 31 :   0.2727 0.2727 0.0909  plane waves:     775
 k-point 32 :   0.3636 0.2727 0.0909  plane waves:     776
 k-point 33 :   0.0000 0.0000 0.1818  plane waves:     766
 k-point 34 :   0.0909 0.0000 0.1818  plane waves:     763
 k-point 35 :   0.1818 0.0000 0.1818  plane waves:     764
 k-point 36 :   0.2727 0.0000 0.1818  plane waves:     770
 k-point 37 :   0.3636 0.0000 0.1818  plane waves:     776
 k-point 38 :   0.4545 0.0000 0.1818  plane waves:     774
 k-point 39 :   0.0909 0.0909 0.1818  plane waves:     760
 k-point 40 :   0.1818 0.0909 0.1818  plane waves:     772
 k-point 41 :   0.2727 0.0909 0.1818  plane waves:     775
 k-point 42 :   0.3636 0.0909 0.1818  plane waves:     774
 k-point 43 :   0.4545 0.0909 0.1818  plane waves:     772
 k-point 44 :   0.1818 0.1818 0.1818  plane waves:     778
 k-point 45 :   0.2727 0.1818 0.1818  plane waves:     774
 k-point 46 :   0.3636 0.1818 0.1818  plane waves:     770
 k-point 47 :   0.2727 0.2727 0.1818  plane waves:     777
 k-point 48 :   0.3636 0.2727 0.1818  plane waves:     771
 k-point 49 :   0.0000 0.0000 0.2727  plane waves:     778
 k-point 50 :   0.0909 0.0000 0.2727  plane waves:     759
 k-point 51 :   0.1818 0.0000 0.2727  plane waves:     766
 k-point 52 :   0.2727 0.0000 0.2727  plane waves:     774
 k-point 53 :   0.3636 0.0000 0.2727  plane waves:     777
 k-point 54 :   0.4545 0.0000 0.2727  plane waves:     773
 k-point 55 :   0.0909 0.0909 0.2727  plane waves:     762
 k-point 56 :   0.1818 0.0909 0.2727  plane waves:     765
 k-point 57 :   0.2727 0.0909 0.2727  plane waves:     771
 k-point 58 :   0.3636 0.0909 0.2727  plane waves:     774
 k-point 59 :   0.4545 0.0909 0.2727  plane waves:     777
 k-point 60 :   0.1818 0.1818 0.2727  plane waves:     776
 k-point 61 :   0.2727 0.1818 0.2727  plane waves:     776
 k-point 62 :   0.3636 0.1818 0.2727  plane waves:     773
 k-point 63 :   0.2727 0.2727 0.2727  plane waves:     779
 k-point 64 :   0.3636 0.2727 0.2727  plane waves:     773
 k-point 65 :   0.0000 0.0000 0.3636  plane waves:     760
 k-point 66 :   0.0909 0.0000 0.3636  plane waves:     763
 k-point 67 :   0.1818 0.0000 0.3636  plane waves:     769
 k-point 68 :   0.2727 0.0000 0.3636  plane waves:     772
 k-point 69 :   0.3636 0.0000 0.3636  plane waves:     770
 k-point 70 :   0.4545 0.0000 0.3636  plane waves:     776
 k-point 71 :   0.0909 0.0909 0.3636  plane waves:     760
 k-point 72 :   0.1818 0.0909 0.3636  plane waves:     767
 k-point 73 :   0.2727 0.0909 0.3636  plane waves:     772
 k-point 74 :   0.3636 0.0909 0.3636  plane waves:     779
 k-point 75 :   0.4545 0.0909 0.3636  plane waves:     780
 k-point 76 :   0.1818 0.1818 0.3636  plane waves:     778
 k-point 77 :   0.2727 0.1818 0.3636  plane waves:     778
 k-point 78 :   0.3636 0.1818 0.3636  plane waves:     779
 k-point 79 :   0.2727 0.2727 0.3636  plane waves:     772
 k-point 80 :   0.3636 0.2727 0.3636  plane waves:     782
 k-point 81 :   0.0000 0.0000 0.4545  plane waves:     772
 k-point 82 :   0.0909 0.0000 0.4545  plane waves:     762
 k-point 83 :   0.1818 0.0000 0.4545  plane waves:     767
 k-point 84 :   0.2727 0.0000 0.4545  plane waves:     774
 k-point 85 :   0.3636 0.0000 0.4545  plane waves:     770
 k-point 86 :   0.4545 0.0000 0.4545  plane waves:     776
 k-point 87 :   0.0909 0.0909 0.4545  plane waves:     758
 k-point 88 :   0.1818 0.0909 0.4545  plane waves:     764
 k-point 89 :   0.2727 0.0909 0.4545  plane waves:     771
 k-point 90 :   0.3636 0.0909 0.4545  plane waves:     780
 k-point 91 :   0.4545 0.0909 0.4545  plane waves:     780
 k-point 92 :   0.1818 0.1818 0.4545  plane waves:     764
 k-point 93 :   0.2727 0.1818 0.4545  plane waves:     784
 k-point 94 :   0.3636 0.1818 0.4545  plane waves:     783
 k-point 95 :   0.2727 0.2727 0.4545  plane waves:     778
 k-point 96 :   0.3636 0.2727 0.4545  plane waves:     778

 maximum and minimum number of plane-waves per node :       784      757

 maximum number of plane-waves:       784
 maximum index in each direction: 
   IXMAX=    5   IYMAX=    5   IZMAX=    8
   IXMIN=   -5   IYMIN=   -5   IZMIN=   -8


 serial   3D FFT for wavefunctions
 parallel 3D FFT for charge:
    minimum data exchange during FFTs selected (reduces bandwidth)


 total amount of memory used by VASP MPI-rank0    46731. kBytes
=======================================================================

   base      :      30000. kBytes
   nonl-proj :       9683. kBytes
   fftplans  :       1049. kBytes
   grid      :       2227. kBytes
   one-center:         12. kBytes
   wavefun   :       3760. kBytes
 
     INWAV:  cpu time    0.0000: real time    0.0000
 Broyden mixing: mesh for mixing (old mesh)
   NGX = 11   NGY = 11   NGZ = 17
  (NGX  = 40   NGY  = 40   NGZ  = 72)
  gives a total of   2057 points

 initial charge density was supplied:
 charge density of overlapping atoms calculated
 number of electron      16.0000000 magnetization 
 keeping initial charge density in first step


--------------------------------------------------------------------------------------------------------


 Maximum index for augmentation-charges         3183 (set IRDMAX)


--------------------------------------------------------------------------------------------------------


 First call to EWALD:  gamma=   0.508
 Maximum number of real-space cells 3x 3x 2
 Maximum number of reciprocal cells 3x 3x 4

    FEWALD:  cpu time    0.0007: real time    0.0007


--------------------------------------- Iteration      1(   1)  ---------------------------------------


    POTLOK:  cpu time    0.0071: real time    0.0071
    SETDIJ:  cpu time    0.0009: real time    0.0009
     EDDAV:  cpu time    0.3434: real time    0.3434
       DOS:  cpu time    0.0005: real time    0.0005
    --------------------------------------------
      LOOP:  cpu time    0.3518: real time    0.3519

 eigenvalue-minimisations  :  2328
 total energy-change (2. order) : 0.4150205E+02  (-0.6652243E+03)
 number of electron      16.0000000 magnetization 
 augmentation part       16.0000000 magnetization 

 Free energy of the ion-electron system (eV)
  ---------------------------------------------------
  alpha Z        PSCENC =        15.37241317
  Ewald energy   TEWEN  =      -588.30353609
  -Hartree energ DENC   =      -120.16344763
  -exchange      EXHF   =         0.00000000
  -V(xc)+E(xc)   XCENC  =       -12.23336185
  PAW double counting   =       542.26577748     -480.73867292
  entropy T*S    EENTRO =        -0.00055813
  eigenvalues    EBANDS =        49.27712165
  atomic energy  EATOM  =       636.02631347
  Solvation  Ediel_sol  =         0.00000000
  ---------------------------------------------------
  free energy    TOTEN  =        41.50204915 eV

  energy without entropy =       41.50260728  energy(sigma->0) =       41.50232821


--------------------------------------------------------------------------------------------------------




--------------------------------------- Iteration      1(   2)  ---------------------------------------


     EDDAV:  cpu time    0.4391: real time    0.4391
       DOS:  cpu time    0.0002: real time    0.0002
    --------------------------------------------
      LOOP:  cpu time    0.4393: real time    0.4394

 eigenvalue-minimisations  :  3348
 total energy-change (2. order) :-0.7259890E+02  (-0.6640332E+02)
 number of electron      16.0000000 magnetization 
 augmentation part       16.0000000 magnetization 

 Free energy of the ion-electron system (eV)
  ---------------------------------------------------
  alpha Z        PSCENC =        15.37241317
  Ewald energy   TEWEN  =      -588.30353609
  -Hartree energ DENC   =      -120.16344763
  -exchange      EXHF   =         0.00000000
  -V(xc)+E(xc)   XCENC  =       -12.23336185
  PAW double counting   =       542.26577748     -480.73867292
  entropy T*S    EENTRO =        -0.00000000
  eigenvalues    EBANDS =       -23.32233748
  atomic energy  EATOM  =       636.02631347
  Solvation  Ediel_sol  =         0.00000000
  ---------------------------------------------------
  free energy    TOTEN  =       -31.09685185 eV

  energy without entropy =      -31.09685185  energy(sigma->0) =      -31.09685185


--------------------------------------------------------------------------------------------------------




--------------------------------------- Iteration      1(   3)  ---------------------------------------


     EDDAV:  cpu time    0.3905: real time    0.3906
       DOS:  cpu time    0.0002: real time    0.0002
    --------------------------------------------
      LOOP:  cpu time    0.3908: real time    0.3908

 eigenvalue-minimisations  :  2996
 total energy-change (2. order) :-0.3290908E+01  (-0.3275934E+01)
 number of electron      16.0000000 magnetization 
 augmentation part       16.0000000 magnetization 

 Free energy of the ion-electron system (eV)
  ---------------------------------------------------
  alpha Z        PSCENC =        15.37241317
  Ewald energy   TEWEN  =      -588.30353609
  -Hartree energ DENC   =      -120.16344763
  -exchange      EXHF   =         0.00000000
  -V(xc)+E(xc)   XCENC  =       -12.23336185
  PAW double counting   =       542.26577748     -480.73867292
  entropy T*S    EENTRO =        -0.00000000
  eigenvalues    EBANDS =       -26.61324522
  atomic energy  EATOM  =       636.02631347
  Solvation  Ediel_sol  =         0.00000000
  ---------------------------------------------------
  free energy    TOTEN  =       -34.38775959 eV

  energy without entropy =      -34.38775959  energy(sigma->0) =      -34.38775959


--------------------------------------------------------------------------------------------------------




--------------------------------------- Iteration      1(   4)  ---------------------------------------


     EDDAV:  cpu time    0.3556: real time    0.3556
       DOS:  cpu time    0.0002: real time    0.0002
    --------------------------------------------
      LOOP:  cpu time    0.3558: real time    0.3558

 eigenvalue-minimisations  :  2636
 total energy-change (2. order) :-0.2490128E-01  (-0.2489523E-01)
 number of electron      16.0000000 magnetization 
 augmentation part       16.0000000 magnetization 

 Free energy of the ion-electron system (eV)
  ---------------------------------------------------
  alpha Z        PSCENC =        15.37241317
  Ewald energy   TEWEN  =      -588.30353609
  -Hartree energ DENC   =      -120.16344763
  -exchange      EXHF   =         0.00000000
  -V(xc)+E(xc)   XCENC  =       -12.23336185
  PAW double counting   =       542.26577748     -480.73867292
  entropy T*S    EENTRO =        -0.00000000
  eigenvalues    EBANDS =       -26.63814650
  atomic energy  EATOM  =       636.02631347
  Solvation  Ediel_sol  =         0.00000000
  ---------------------------------------------------
  free energy    TOTEN  =       -34.41266087 eV

  energy without entropy =      -34.41266087  energy(sigma->0) =      -34.41266087


--------------------------------------------------------------------------------------------------------




--------------------------------------- Iteration      1(   5)  ---------------------------------------


     EDDAV:  cpu time    0.3831: real time    0.3831
       DOS:  cpu time    0.0003: real time    0.0003
    CHARGE:  cpu time    0.0228: real time    0.0228
    MIXING:  cpu time    0.0004: real time    0.0004
    --------------------------------------------
      LOOP:  cpu time    0.4066: real time    0.4066

 eigenvalue-minimisations  :  2944
 total energy-change (2. order) :-0.3508164E-03  (-0.3508070E-03)
 number of electron      15.9999996 magnetization 
 augmentation part        0.6393673 magnetization 

 Broyden mixing:
  rms(total) = 0.11975E+01    rms(broyden)= 0.11973E+01
  rms(prec ) = 0.25703E+01
  weight for this iteration     100.00

 Free energy of the ion-electron system (eV)
  ---------------------------------------------------
  alpha Z        PSCENC =        15.37241317
  Ewald energy   TEWEN  =      -588.30353609
  -Hartree energ DENC   =      -120.16344763
  -exchange      EXHF   =         0.00000000
  -V(xc)+E(xc)   XCENC  =       -12.23336185
  PAW double counting   =       542.26577748     -480.73867292
  entropy T*S    EENTRO =        -0.00000000
  eigenvalues    EBANDS =       -26.63849731
  atomic energy  EATOM  =       636.02631347
  Solvation  Ediel_sol  =         0.00000000
  ---------------------------------------------------
  free energy    TOTEN  =       -34.41301169 eV

  energy without entropy =      -34.41301169  energy(sigma->0) =      -34.41301169


--------------------------------------------------------------------------------------------------------




--------------------------------------- Iteration      1(   6)  ---------------------------------------


    POTLOK:  cpu time    0.0065: real time    0.0065
    SETDIJ:  cpu time    0.0008: real time    0.0008
     EDDAV:  cpu time    0.3698: real time    0.3699
       DOS:  cpu time    0.0002: real time    0.0002
    CHARGE:  cpu time    0.0224: real time    0.0224
    MIXING:  cpu time    0.0004: real time    0.0004
    --------------------------------------------
      LOOP:  cpu time    0.4003: real time    0.4003

 eigenvalue-minimisations  :  2744
 total energy-change (2. order) : 0.4634917E+01  (-0.1688410E+01)
 number of electron      15.9999997 magnetization 
 augmentation part        0.4260906 magnetization 

 Broyden mixing:
  rms(total) = 0.43139E+00    rms(broyden)= 0.43114E+00
  rms(prec ) = 0.60209E+00
  weight for this iteration     100.00

 eigenvalues of (default mixing * dielectric matrix)
  average eigenvalue GAMMA=   0.9551
  0.9551

 Free energy of the ion-electron system (eV)
  ---------------------------------------------------
  alpha Z        PSCENC =        15.37241317
  Ewald energy   TEWEN  =      -588.30353609
  -Hartree energ DENC   =      -152.11791541
  -exchange      EXHF   =         0.00000000
  -V(xc)+E(xc)   XCENC  =        -9.82770699
  PAW double counting   =       838.24908543     -777.13395542
  entropy T*S    EENTRO =        -0.00000000
  eigenvalues    EBANDS =         7.95720692
  atomic energy  EATOM  =       636.02631347
  Solvation  Ediel_sol  =         0.00000000
  ---------------------------------------------------
  free energy    TOTEN  =       -29.77809493 eV

  energy without entropy =      -29.77809493  energy(sigma->0) =      -29.77809493


--------------------------------------------------------------------------------------------------------




--------------------------------------- Iteration      1(   7)  ---------------------------------------


    POTLOK:  cpu time    0.0066: real time    0.0066
    SETDIJ:  cpu time    0.0009: real time    0.0009
     EDDAV:  cpu time    0.3612: real time    0.3612
       DOS:  cpu time    0.0003: real time    0.0003
    CHARGE:  cpu time    0.0223: real time    0.0223
    MIXING:  cpu time    0.0005: real time    0.0005
    --------------------------------------------
      LOOP:  cpu time    0.3917: real time    0.3917

 eigenvalue-minimisations  :  2604
 total energy-change (2. order) :-0.1253553E-01  (-0.5727196E-01)
 number of electron      15.9999997 magnetization 
 augmentation part        0.4081613 magnetization 

 Broyden mixing:
  rms(total) = 0.29576E+00    rms(broyden)= 0.29573E+00
  rms(prec ) = 0.39085E+00
  weight for this iteration     100.00

 eigenvalues of (default mixing * dielectric matrix)
  average eigenvalue GAMMA=   1.6068
  1.1205  2.0932

 Free energy of the ion-electron system (eV)
  ---------------------------------------------------
  alpha Z        PSCENC =        15.37241317
  Ewald energy   TEWEN  =      -588.30353609
  -Hartree energ DENC   =      -154.80705673
  -exchange      EXHF   =         0.00000000
  -V(xc)+E(xc)   XCENC  =        -9.56540625
  PAW double counting   =      1094.41066725    -1033.37432119
  entropy T*S    EENTRO =        -0.00000000
  eigenvalues    EBANDS =        10.45029591
  atomic energy  EATOM  =       636.02631347
  Solvation  Ediel_sol  =         0.00000000
  ---------------------------------------------------
  free energy    TOTEN  =       -29.79063046 eV

  energy without entropy =      -29.79063046  energy(sigma->0) =      -29.79063046


--------------------------------------------------------------------------------------------------------




--------------------------------------- Iteration      1(   8)  ---------------------------------------


    POTLOK:  cpu time    0.0062: real time    0.0062
    SETDIJ:  cpu time    0.0008: real time    0.0008
     EDDAV:  cpu time    0.3554: real time    0.3555
       DOS:  cpu time    0.0002: real time    0.0002
    CHARGE:  cpu time    0.0228: real time    0.0228
    MIXING:  cpu time    0.0006: real time    0.0006
    --------------------------------------------
      LOOP:  cpu time    0.3861: real time    0.3861

 eigenvalue-minimisations  :  2572
 total energy-change (2. order) : 0.5409487E-02  (-0.7491777E-02)
 number of electron      15.9999997 magnetization 
 augmentation part        0.4189191 magnetization 

 Broyden mixing:
  rms(total) = 0.51465E-01    rms(broyden)= 0.51461E-01
  rms(prec ) = 0.96016E-01
  weight for this iteration     100.00

 eigenvalues of (default mixing * dielectric matrix)
  average eigenvalue GAMMA=   1.4546
  2.3659  0.9989  0.9989

 Free energy of the ion-electron system (eV)
  ---------------------------------------------------
  alpha Z        PSCENC =        15.37241317
  Ewald energy   TEWEN  =      -588.30353609
  -Hartree energ DENC   =      -155.27392781
  -exchange      EXHF   =         0.00000000
  -V(xc)+E(xc)   XCENC  =        -9.41225963
  PAW double counting   =      1463.12680233    -1402.17835054
  entropy T*S    EENTRO =        -0.00000000
  eigenvalues    EBANDS =        10.85732413
  atomic energy  EATOM  =       636.02631347
  Solvation  Ediel_sol  =         0.00000000
  ---------------------------------------------------
  free energy    TOTEN  =       -29.78522097 eV

  energy without entropy =      -29.78522097  energy(sigma->0) =      -29.78522097


--------------------------------------------------------------------------------------------------------




--------------------------------------- Iteration      1(   9)  ---------------------------------------


    POTLOK:  cpu time    0.0064: real time    0.0064
    SETDIJ:  cpu time    0.0009: real time    0.0009
     EDDAV:  cpu time    0.3870: real time    0.3870
       DOS:  cpu time    0.0002: real time    0.0002
    CHARGE:  cpu time    0.0219: real time    0.0219
    MIXING:  cpu time    0.0005: real time    0.0005
    --------------------------------------------
      LOOP:  cpu time    0.4169: real time    0.4169

 eigenvalue-minimisations  :  2908
 total energy-change (2. order) : 0.4796185E-02  (-0.1944524E-02)
 number of electron      15.9999997 magnetization 
 augmentation part        0.4119827 magnetization 

 Broyden mixing:
  rms(total) = 0.25011E-01    rms(broyden)= 0.25007E-01
  rms(prec ) = 0.28301E-01
  weight for this iteration     100.00

 eigenvalues of (default mixing * dielectric matrix)
  average eigenvalue GAMMA=   1.9215
  2.8304  2.8304  1.0126  1.0126

 Free energy of the ion-electron system (eV)
  ---------------------------------------------------
  alpha Z        PSCENC =        15.37241317
  Ewald energy   TEWEN  =      -588.30353609
  -Hartree energ DENC   =      -156.52019465
  -exchange      EXHF   =         0.00000000
  -V(xc)+E(xc)   XCENC  =        -9.31318155
  PAW double counting   =      1465.26071126    -1404.32517436
  entropy T*S    EENTRO =        -0.00000000
  eigenvalues    EBANDS =        12.02222398
  atomic energy  EATOM  =       636.02631347
  Solvation  Ediel_sol  =         0.00000000
  ---------------------------------------------------
  free energy    TOTEN  =       -29.78042479 eV

  energy without entropy =      -29.78042479  energy(sigma->0) =      -29.78042479


--------------------------------------------------------------------------------------------------------




--------------------------------------- Iteration      1(  10)  ---------------------------------------


    POTLOK:  cpu time    0.0063: real time    0.0063
    SETDIJ:  cpu time    0.0009: real time    0.0009
     EDDAV:  cpu time    0.3738: real time    0.3738
       DOS:  cpu time    0.0002: real time    0.0002
    CHARGE:  cpu time    0.0219: real time    0.0219
    MIXING:  cpu time    0.0005: real time    0.0005
    --------------------------------------------
      LOOP:  cpu time    0.4036: real time    0.4036

 eigenvalue-minimisations  :  2752
 total energy-change (2. order) :-0.5591111E-03  (-0.2289354E-03)
 number of electron      15.9999997 magnetization 
 augmentation part        0.4105574 magnetization 

 Broyden mixing:
  rms(total) = 0.14016E-01    rms(broyden)= 0.14014E-01
  rms(prec ) = 0.16796E-01
  weight for this iteration     100.00

 eigenvalues of (default mixing * dielectric matrix)
  average eigenvalue GAMMA=   1.6223
  2.7320  2.4545  1.0058  1.0058  0.9136

 Free energy of the ion-electron system (eV)
  ---------------------------------------------------
  alpha Z        PSCENC =        15.37241317
  Ewald energy   TEWEN  =      -588.30353609
  -Hartree energ DENC   =      -156.81386126
  -exchange      EXHF   =         0.00000000
  -V(xc)+E(xc)   XCENC  =        -9.28962571
  PAW double counting   =      1414.52738533    -1353.58632592
  entropy T*S    EENTRO =        -0.00000000
  eigenvalues    EBANDS =        12.28625312
  atomic energy  EATOM  =       636.02631347
  Solvation  Ediel_sol  =         0.00000000
  ---------------------------------------------------
  free energy    TOTEN  =       -29.78098390 eV

  energy without entropy =      -29.78098390  energy(sigma->0) =      -29.78098390


--------------------------------------------------------------------------------------------------------




--------------------------------------- Iteration      1(  11)  ---------------------------------------


    POTLOK:  cpu time    0.0066: real time    0.0066
    SETDIJ:  cpu time    0.0008: real time    0.0008
     EDDAV:  cpu time    0.3716: real time    0.3716
       DOS:  cpu time    0.0002: real time    0.0002
    CHARGE:  cpu time    0.0219: real time    0.0219
    MIXING:  cpu time    0.0005: real time    0.0005
    --------------------------------------------
      LOOP:  cpu time    0.4016: real time    0.4016

 eigenvalue-minimisations  :  2704
 total energy-change (2. order) : 0.6933288E-04  (-0.1951557E-04)
 number of electron      15.9999997 magnetization 
 augmentation part        0.4112225 magnetization 

 Broyden mixing:
  rms(total) = 0.36376E-02    rms(broyden)= 0.36376E-02
  rms(prec ) = 0.40884E-02
  weight for this iteration     100.00

 eigenvalues of (default mixing * dielectric matrix)
  average eigenvalue GAMMA=   1.8089
  2.7163  2.5127  2.5127  1.0151  1.0484  1.0484

 Free energy of the ion-electron system (eV)
  ---------------------------------------------------
  alpha Z        PSCENC =        15.37241317
  Ewald energy   TEWEN  =      -588.30353609
  -Hartree energ DENC   =      -156.75086788
  -exchange      EXHF   =         0.00000000
  -V(xc)+E(xc)   XCENC  =        -9.29215086
  PAW double counting   =      1427.89666957    -1366.95769443
  entropy T*S    EENTRO =        -0.00000000
  eigenvalues    EBANDS =        12.22793849
  atomic energy  EATOM  =       636.02631347
  Solvation  Ediel_sol  =         0.00000000
  ---------------------------------------------------
  free energy    TOTEN  =       -29.78091456 eV

  energy without entropy =      -29.78091456  energy(sigma->0) =      -29.78091456


--------------------------------------------------------------------------------------------------------




--------------------------------------- Iteration      1(  12)  ---------------------------------------


    POTLOK:  cpu time    0.0065: real time    0.0065
    SETDIJ:  cpu time    0.0008: real time    0.0008
     EDDAV:  cpu time    0.3624: real time    0.3624
       DOS:  cpu time    0.0002: real time    0.0002
    CHARGE:  cpu time    0.0222: real time    0.0222
    MIXING:  cpu time    0.0005: real time    0.0005
    --------------------------------------------
      LOOP:  cpu time    0.3927: real time    0.3927

 eigenvalue-minimisations  :  2588
 total energy-change (2. order) :-0.1389602E-05  (-0.7008027E-06)
 number of electron      15.9999997 magnetization 
 augmentation part        0.4112820 magnetization 

 Broyden mixing:
  rms(total) = 0.76494E-03    rms(broyden)= 0.76487E-03
  rms(prec ) = 0.12262E-02
  weight for this iteration     100.00

 eigenvalues of (default mixing * dielectric matrix)
  average eigenvalue GAMMA=   1.7453
  3.1658  2.6406  2.3555  1.0346  1.0346  0.9932  0.9932

 Free energy of the ion-electron system (eV)
  ---------------------------------------------------
  alpha Z        PSCENC =        15.37241317
  Ewald energy   TEWEN  =      -588.30353609
  -Hartree energ DENC   =      -156.75226816
  -exchange      EXHF   =         0.00000000
  -V(xc)+E(xc)   XCENC  =        -9.29226717
  PAW double counting   =      1430.46454438    -1369.52645959
  entropy T*S    EENTRO =        -0.00000000
  eigenvalues    EBANDS =        12.23034405
  atomic energy  EATOM  =       636.02631347
  Solvation  Ediel_sol  =         0.00000000
  ---------------------------------------------------
  free energy    TOTEN  =       -29.78091595 eV

  energy without entropy =      -29.78091595  energy(sigma->0) =      -29.78091595


--------------------------------------------------------------------------------------------------------




--------------------------------------- Iteration      1(  13)  ---------------------------------------


    POTLOK:  cpu time    0.0062: real time    0.0062
    SETDIJ:  cpu time    0.0008: real time    0.0008
     EDDAV:  cpu time    0.3674: real time    0.3674
       DOS:  cpu time    0.0002: real time    0.0002
    --------------------------------------------
      LOOP:  cpu time    0.3746: real time    0.3747

 eigenvalue-minimisations  :  2748
 total energy-change (2. order) : 0.4756324E-06  (-0.6537217E-06)
 number of electron      15.9999997 magnetization 
 augmentation part        0.4112820 magnetization 

 Free energy of the ion-electron system (eV)
  ---------------------------------------------------
  alpha Z        PSCENC =        15.37241317
  Ewald energy   TEWEN  =      -588.30353609
  -Hartree energ DENC   =      -156.73435948
  -exchange      EXHF   =         0.00000000
  -V(xc)+E(xc)   XCENC  =        -9.29366518
  PAW double counting   =      1429.80609089    -1368.86775226
  entropy T*S    EENTRO =        -0.00000000
  eigenvalues    EBANDS =        12.21358000
  atomic energy  EATOM  =       636.02631347
  Solvation  Ediel_sol  =         0.00000000
  ---------------------------------------------------
  free energy    TOTEN  =       -29.78091548 eV

  energy without entropy =      -29.78091548  energy(sigma->0) =      -29.78091548


--------------------------------------------------------------------------------------------------------




 average (electrostatic) potential at core
  the test charge radii are     1.0406  0.7089
  (the norm of the test charge is              1.0000)
       1 -71.9068       2 -71.9069       3 -60.1567       4 -60.1567
 
 
 
 E-fermi :   6.1654     XC(G=0): -10.8329     alpha+bet :-15.6297


 k-point     1 :       0.0000    0.0000    0.0000
  band No.  band energies     occupation 
      1      -9.1053      2.00000
      2      -7.0226      2.00000
      3       0.0621      2.00000
      4       5.1341      2.00000
      5       5.1341      2.00000
      6       5.7759      2.00000
      7       5.7759      2.00000
      8       5.9774      2.00000
      9      10.0262      0.00000
     10      12.4986      0.00000
     11      16.4610      0.00000
     12      17.0180      0.00000

 k-point     2 :       0.0909    0.0000    0.0000
  band No.  band energies     occupation 
      1      -9.0020      2.00000
      2      -6.9642      2.00000
      3       0.1857      2.00000
      4       4.6539      2.00000
      5       5.0010      2.00000
      6       5.2960      2.00000
      7       5.7611      2.00000
      8       5.9344      2.00000
      9      10.5210      0.00000
     10      12.9309      0.00000
     11      16.0381      0.00000
     12      16.3373      0.00000

 k-point     3 :       0.1818    0.0000    0.0000
  band No.  band energies     occupation 
      1      -8.7038      2.00000
      2      -6.8084      2.00000
      3       0.5478      2.00000
      4       3.5170      2.00000
      5       4.3133      2.00000
      6       4.6918      2.00000
      7       5.6758      2.00000
      8       5.7703      2.00000
      9      11.4722      0.00000
     10      13.6401      0.00000
     11      14.8610      0.00000
     12      15.5992      0.00000

 k-point     4 :       0.2727    0.0000    0.0000
  band No.  band energies     occupation 
      1      -8.2476      2.00000
      2      -6.6145      2.00000
      3       1.1230      2.00000
      4       2.2650      2.00000
      5       3.2818      2.00000
      6       4.3587      2.00000
      7       5.4467      2.00000
      8       5.5347      2.00000
      9      12.1454      0.00000
     10      13.2819      0.00000
     11      13.8361      0.00000
     12      16.0273      0.00000

 k-point     5 :       0.3636    0.0000    0.0000
  band No.  band energies     occupation 
      1      -7.7130      2.00000
      2      -6.4842      2.00000
      3       1.2355      2.00000
      4       1.8488      2.00000
      5       2.4288      2.00000
      6       4.0890      2.00000
      7       4.9300      2.00000
      8       5.3916      2.00000
      9      12.0405      0.00000
     10      12.3467      0.00000
     11      13.8591      0.00000
     12      16.1508      0.00000

 k-point     6 :       0.4545    0.0000    0.0000
  band No.  band energies     occupation 
      1      -7.2681      2.00000
      2      -6.4967      2.00000
      3       0.6688      2.00000
      4       1.9162      2.00000
      5       2.5448      2.00000
      6       3.9432      2.00000
      7       4.3533      2.00000
      8       5.3088      2.00000
      9      11.7785      0.00000
     10      11.8166      0.00000
     11      13.9994      0.00000
     12      16.1401      0.00000

 k-point     7 :       0.0909    0.0909    0.0000
  band No.  band energies     occupation 
      1      -8.8011      2.00000
      2      -6.8569      2.00000
      3       0.4288      2.00000
      4       4.0035      2.00000
      5       4.2695      2.00000
      6       5.0238      2.00000
      7       5.6241      2.00000
      8       5.8301      2.00000
      9      11.2363      0.00000
     10      13.5969      0.00000
     11      15.2994      0.00000
     12      15.4974      0.00000

 k-point     8 :       0.1818    0.0909    0.0000
  band No.  band energies     occupation 
      1      -8.4228      2.00000
      2      -6.6806      2.00000
      3       0.8988      2.00000
      4       2.8937      2.00000
      5       3.4200      2.00000
      6       4.5529      2.00000
      7       5.4177      2.00000
      8       5.5904      2.00000
      9      12.1219      0.00000
     10      14.0249      0.00000
     11      14.0651      0.00000
     12      15.2543      0.00000

 k-point     9 :       0.2727    0.0909    0.0000
  band No.  band energies     occupation 
      1      -7.9221      2.00000
      2      -6.5152      2.00000
      3       1.5477      2.00000
      4       1.7723      2.00000
      5       2.6869      2.00000
      6       4.0523      2.00000
      7       5.1734      2.00000
      8       5.2173      2.00000
      9      12.4838      0.00000
     10      12.8706      0.00000
     11      13.8807      0.00000
     12      15.9500      0.00000

 k-point    10 :       0.3636    0.0909    0.0000
  band No.  band energies     occupation 
      1      -7.4104      2.00000
      2      -6.4645      2.00000
      3       0.9627      2.00000
      4       2.1095      2.00000
      5       2.3231      2.00000
      6       3.7137      2.00000
      7       4.6018      2.00000
      8       5.0639      2.00000
      9      11.9625      0.00000
     10      12.3472      0.00000
     11      14.1310      0.00000
     12      16.0600      0.00000

 k-point    11 :       0.4545    0.0909    0.0000
  band No.  band energies     occupation 
      1      -7.1413      2.00000
      2      -6.5107      2.00000
      3       0.6744      2.00000
      4       1.9132      2.00000
      5       2.7539      2.00000
      6       3.5951      2.00000
      7       4.2097      2.00000
      8       5.0075      2.00000
      9      11.6865      0.00000
     10      12.2062      0.00000
     11      14.2305      0.00000
     12      16.0801      0.00000

 k-point    12 :       0.1818    0.1818    0.0000
  band No.  band energies     occupation 
      1      -7.9963      2.00000
      2      -6.5294      2.00000
      3       1.4520      2.00000
      4       2.3496      2.00000
      5       2.4275      2.00000
      6       4.1043      2.00000
      7       4.9512      2.00000
      8       5.2680      2.00000
      9      12.9354      0.00000
     10      13.0377      0.00000
     11      14.3740      0.00000
     12      15.1797      0.00000

 k-point    13 :       0.2727    0.1818    0.0000
  band No.  band energies     occupation 
      1      -7.5002      2.00000
      2      -6.4433      2.00000
      3       1.4805      2.00000
      4       2.0834      2.00000
      5       2.2040      2.00000
      6       3.4677      2.00000
      7       4.5663      2.00000
      8       4.7904      2.00000
      9      12.0660      0.00000
     10      13.3320      0.00000
     11      14.4405      0.00000
     12      15.7260      0.00000

 k-point    14 :       0.3636    0.1818    0.0000
  band No.  band energies     occupation 
      1      -7.0820      2.00000
      2      -6.4876      2.00000
      3       0.9661      2.00000
      4       2.0742      2.00000
      5       2.8364      2.00000
      6       2.9682      2.00000
      7       4.2338      2.00000
      8       4.3785      2.00000
      9      11.4951      0.00000
     10      13.2631      0.00000
     11      14.7524      0.00000
     12      15.8898      0.00000

 k-point    15 :       0.2727    0.2727    0.0000
  band No.  band energies     occupation 
      1      -7.0709      2.00000
      2      -6.4690      2.00000
      3       1.2915      2.00000
      4       1.9494      2.00000
      5       2.8257      2.00000
      6       2.8405      2.00000
      7       3.9577      2.00000
      8       4.3028      2.00000
      9      11.3807      0.00000
     10      13.9462      0.00000
     11      15.0250      0.00000
     12      15.7015      0.00000

 k-point    16 :       0.3636    0.2727    0.0000
  band No.  band energies     occupation 
      1      -6.8099      2.00000
      2      -6.5725      2.00000
      3       1.1740      2.00000
      4       2.2450      2.00000
      5       2.2874      2.00000
      6       3.3317      2.00000
      7       3.7075      2.00000
      8       3.8990      2.00000
      9      11.1038      0.00000
     10      14.1075      0.00000
     11      15.3327      0.00000
     12      15.6886      0.00000

 k-point    17 :       0.0000    0.0000    0.0909
  band No.  band energies     occupation 
      1      -9.0742      2.00000
      2      -7.0846      2.00000
      3       0.1719      2.00000
      4       5.1480      2.00000
      5       5.1480      2.00000
      6       5.7636      2.00000
      7       5.7636      2.00000
      8       5.7818      2.00000
      9      10.1927      0.00000
     10      12.5201      0.00000
     11      16.4004      0.00000
     12      17.0055      0.00000

 k-point    18 :       0.0909    0.0000    0.0909
  band No.  band energies     occupation 
      1      -8.9714      2.00000
      2      -7.0242      2.00000
      3       0.2900      2.00000
      4       4.6698      2.00000
      5       5.0155      2.00000
      6       5.2050      2.00000
      7       5.7445      2.00000
      8       5.8487      2.00000
      9      10.6480      0.00000
     10      12.9503      0.00000
     11      15.9521      0.00000
     12      16.3427      0.00000

 k-point    19 :       0.1818    0.0000    0.0909
  band No.  band energies     occupation 
      1      -8.6744      2.00000
      2      -6.8618      2.00000
      3       0.6326      2.00000
      4       3.5435      2.00000
      5       4.2422      2.00000
      6       4.7120      2.00000
      7       5.6544      2.00000
      8       5.7257      2.00000
      9      11.5218      0.00000
     10      13.6610      0.00000
     11      14.8104      0.00000
     12      15.6061      0.00000

 k-point    20 :       0.2727    0.0000    0.0909
  band No.  band energies     occupation 
      1      -8.2209      2.00000
      2      -6.6569      2.00000
      3       1.1364      2.00000
      4       2.3428      2.00000
      5       3.2230      2.00000
      6       4.3792      2.00000
      7       5.4458      2.00000
      8       5.5064      2.00000
      9      12.0663      0.00000
     10      13.2489      0.00000
     11      13.9734      0.00000
     12      16.0338      0.00000

 k-point    21 :       0.3636    0.0000    0.0909
  band No.  band energies     occupation 
      1      -7.6908      2.00000
      2      -6.5118      2.00000
      3       1.1134      2.00000
      4       1.9709      2.00000
      5       2.4331      2.00000
[...]
  band No.  band energies     occupation 
      1      -7.5581      2.00000
      2      -6.9789      2.00000
      3       1.2025      2.00000
      4       1.7520      2.00000
      5       3.6551      2.00000
      6       4.2615      2.00000
      7       4.6847      2.00000
      8       5.1874      2.00000
      9      11.8639      0.00000
     10      12.5884      0.00000
     11      14.8902      0.00000
     12      15.9351      0.00000

 k-point    74 :       0.3636    0.0909    0.3636
  band No.  band energies     occupation 
      1      -7.1371      2.00000
      2      -6.7406      2.00000
      3       0.6454      2.00000
      4       1.1074      2.00000
      5       3.6227      2.00000
      6       4.2527      2.00000
      7       4.4753      2.00000
      8       5.1421      2.00000
      9      11.3654      0.00000
     10      12.1762      0.00000
     11      14.9137      0.00000
     12      15.9100      0.00000

 k-point    75 :       0.4545    0.0909    0.3636
  band No.  band energies     occupation 
      1      -6.9375      2.00000
      2      -6.6708      2.00000
      3       0.4062      2.00000
      4       0.8596      2.00000
      5       3.5863      2.00000
      6       4.3299      2.00000
      7       4.4277      2.00000
      8       5.0885      2.00000
      9      11.1672      0.00000
     10      12.0288      0.00000
     11      14.9477      0.00000
     12      15.7956      0.00000

 k-point    76 :       0.1818    0.1818    0.3636
  band No.  band energies     occupation 
      1      -7.6217      2.00000
      2      -7.0195      2.00000
      3       1.4065      2.00000
      4       1.9301      2.00000
      5       3.8175      2.00000
      6       3.8801      2.00000
      7       4.5227      2.00000
      8       5.2383      2.00000
      9      12.4544      0.00000
     10      12.7715      0.00000
     11      15.0465      0.00000
     12      15.4479      0.00000

 k-point    77 :       0.2727    0.1818    0.3636
  band No.  band energies     occupation 
      1      -7.2047      2.00000
      2      -6.7638      2.00000
      3       1.0486      2.00000
      4       1.3659      2.00000
      5       3.2376      2.00000
      6       3.7791      2.00000
      7       4.3279      2.00000
      8       5.2415      2.00000
      9      12.1661      0.00000
     10      12.6863      0.00000
     11      14.7879      0.00000
     12      15.6400      0.00000

 k-point    78 :       0.3636    0.1818    0.3636
  band No.  band energies     occupation 
      1      -6.8885      2.00000
      2      -6.6374      2.00000
      3       0.7233      2.00000
      4       1.0950      2.00000
      5       2.8514      2.00000
      6       3.5707      2.00000
      7       4.5588      2.00000
      8       5.1589      2.00000
      9      11.8303      0.00000
     10      12.7737      0.00000
     11      14.7808      0.00000
     12      15.1584      0.00000

 k-point    79 :       0.2727    0.2727    0.3636
  band No.  band energies     occupation 
      1      -6.8765      2.00000
      2      -6.6225      2.00000
      3       1.1002      2.00000
      4       1.1691      2.00000
      5       2.4608      2.00000
      6       3.1358      2.00000
      7       4.5942      2.00000
      8       5.1843      2.00000
      9      12.3758      0.00000
     10      13.0440      0.00000
     11      14.5005      0.00000
     12      14.8055      0.00000

 k-point    80 :       0.3636    0.2727    0.3636
  band No.  band energies     occupation 
      1      -6.7081      2.00000
      2      -6.6074      2.00000
      3       1.0856      2.00000
      4       1.2896      2.00000
      5       2.0278      2.00000
      6       2.8440      2.00000
      7       4.8193      2.00000
      8       5.0677      2.00000
      9      12.3911      0.00000
     10      13.5243      0.00000
     11      14.0747      0.00000
     12      14.4312      0.00000

 k-point    81 :       0.0000    0.0000    0.4545
  band No.  band energies     occupation 
      1      -8.3784      2.00000
      2      -8.0960      2.00000
      3       2.2939      2.00000
      4       3.0544      2.00000
      5       5.4025      2.00000
      6       5.4026      2.00000
      7       5.4936      2.00000
      8       5.4936      2.00000
      9      12.1171      0.00000
     10      12.4410      0.00000
     11      16.0461      0.00000
     12      16.3239      0.00000

 k-point    82 :       0.0909    0.0000    0.4545
  band No.  band energies     occupation 
      1      -8.2863      2.00000
      2      -8.0094      2.00000
      3       2.2944      2.00000
      4       2.9960      2.00000
      5       5.0722      2.00000
      6       5.2183      2.00000
      7       5.3109      2.00000
      8       5.4192      2.00000
      9      12.3676      0.00000
     10      12.7333      0.00000
     11      15.5106      0.00000
     12      15.7683      0.00000

 k-point    83 :       0.1818    0.0000    0.4545
  band No.  band energies     occupation 
      1      -8.0244      2.00000
      2      -7.7646      2.00000
      3       2.1776      2.00000
      4       2.6720      2.00000
      5       4.4433      2.00000
      6       4.7554      2.00000
      7       5.0825      2.00000
      8       5.2204      2.00000
      9      12.5731      0.00000
     10      12.9657      0.00000
     11      15.0433      0.00000
     12      15.3276      0.00000

 k-point    84 :       0.2727    0.0000    0.4545
  band No.  band energies     occupation 
      1      -7.6382      2.00000
      2      -7.4109      2.00000
      3       1.6775      2.00000
      4       1.9420      2.00000
      5       4.1466      2.00000
      6       4.6131      2.00000
      7       4.8106      2.00000
      8       4.9762      2.00000
      9      12.1130      0.00000
     10      12.4258      0.00000
     11      15.2392      0.00000
     12      15.5709      0.00000

 k-point    85 :       0.3636    0.0000    0.4545
  band No.  band energies     occupation 
      1      -7.2199      2.00000
      2      -7.0453      2.00000
      3       0.9477      2.00000
      4       1.1317      2.00000
      5       4.2506      2.00000
      6       4.5860      2.00000
      7       4.6892      2.00000
      8       4.7687      2.00000
      9      11.4965      0.00000
     10      11.8000      0.00000
     11      15.2000      0.00000
     12      15.5585      0.00000

 k-point    86 :       0.4545    0.0000    0.4545
  band No.  band energies     occupation 
      1      -6.9227      2.00000
      2      -6.8109      2.00000
      3       0.4486      2.00000
      4       0.6111      2.00000
      5       4.4200      2.00000
      6       4.4589      2.00000
      7       4.6500      2.00000
      8       4.7623      2.00000
      9      11.1239      0.00000
     10      11.4406      0.00000
     11      15.0130      0.00000
     12      15.3513      0.00000

 k-point    87 :       0.0909    0.0909    0.4545
  band No.  band energies     occupation 
      1      -8.1092      2.00000
      2      -7.8435      2.00000
      3       2.2412      2.00000
      4       2.8075      2.00000
      5       4.6448      2.00000
      6       4.8389      2.00000
      7       5.1595      2.00000
      8       5.2246      2.00000
      9      12.6284      0.00000
     10      13.0349      0.00000
     11      15.0484      0.00000
     12      15.3209      0.00000

 k-point    88 :       0.1818    0.0909    0.4545
  band No.  band energies     occupation 
      1      -7.7838      2.00000
      2      -7.5428      2.00000
      3       1.9454      2.00000
      4       2.2764      2.00000
      5       4.2333      2.00000
      6       4.5145      2.00000
      7       4.8732      2.00000
      8       4.9783      2.00000
      9      12.5371      0.00000
     10      12.8472      0.00000
     11      15.1177      0.00000
     12      15.3357      0.00000

 k-point    89 :       0.2727    0.0909    0.4545
  band No.  band energies     occupation 
      1      -7.3766      2.00000
      2      -7.1785      2.00000
      3       1.3259      2.00000
      4       1.5180      2.00000
      5       4.0527      2.00000
      6       4.3087      2.00000
      7       4.6518      2.00000
      8       4.9251      2.00000
      9      12.0163      0.00000
     10      12.2864      0.00000
     11      15.2768      0.00000
     12      15.6591      0.00000

 k-point    90 :       0.3636    0.0909    0.4545
  band No.  band energies     occupation 
      1      -7.0072      2.00000
      2      -6.8713      2.00000
      3       0.7151      2.00000
      4       0.8735      2.00000
      5       3.9028      2.00000
      6       4.1536      2.00000
      7       4.6922      2.00000
      8       4.9863      2.00000
      9      11.5430      0.00000
     10      11.8553      0.00000
     11      15.1609      0.00000
     12      15.5540      0.00000

 k-point    91 :       0.4545    0.0909    0.4545
  band No.  band energies     occupation 
      1      -6.8460      2.00000
      2      -6.7543      2.00000
      3       0.4665      2.00000
      4       0.6200      2.00000
      5       3.8359      2.00000
      6       4.0885      2.00000
      7       4.7699      2.00000
      8       5.0128      2.00000
      9      11.3631      0.00000
     10      11.6987      0.00000
     11      15.0792      0.00000
     12      15.4336      0.00000

 k-point    92 :       0.1818    0.1818    0.4545
  band No.  band energies     occupation 
      1      -7.4337      2.00000
      2      -7.2278      2.00000
      3       1.5419      2.00000
      4       1.7255      2.00000
      5       3.9679      2.00000
      6       4.0379      2.00000
      7       4.6128      2.00000
      8       4.9516      2.00000
      9      12.4962      0.00000
     10      12.6200      0.00000
     11      15.2928      0.00000
     12      15.4379      0.00000

 k-point    93 :       0.2727    0.1818    0.4545
  band No.  band energies     occupation 
      1      -7.0623      2.00000
      2      -6.9112      2.00000
      3       1.0865      2.00000
      4       1.2005      2.00000
      5       3.3917      2.00000
      6       3.5924      2.00000
      7       4.7339      2.00000
      8       5.0679      2.00000
      9      12.2683      0.00000
     10      12.4541      0.00000
     11      15.0867      0.00000
     12      15.3962      0.00000

 k-point    94 :       0.3636    0.1818    0.4545
  band No.  band energies     occupation 
      1      -6.8022      2.00000
      2      -6.7159      2.00000
      3       0.7623      2.00000
      4       0.8879      2.00000
      5       3.0508      2.00000
      6       3.2992      2.00000
      7       4.9234      2.00000
      8       5.1374      2.00000
      9      12.0580      0.00000
     10      12.3951      0.00000
     11      14.9358      0.00000
     12      15.0792      0.00000

 k-point    95 :       0.2727    0.2727    0.4545
  band No.  band energies     occupation 
      1      -6.7895      2.00000
      2      -6.7023      2.00000
      3       1.0490      2.00000
      4       1.0831      2.00000
      5       2.6194      2.00000
      6       2.8586      2.00000
      7       4.9643      2.00000
      8       5.1733      2.00000
      9      12.6115      0.00000
     10      12.8002      0.00000
     11      14.5258      0.00000
     12      14.6086      0.00000

 k-point    96 :       0.3636    0.2727    0.4545
  band No.  band energies     occupation 
      1      -6.6687      2.00000
      2      -6.6341      2.00000
      3       1.0663      2.00000
      4       1.1316      2.00000
      5       2.2486      2.00000
      6       2.5311      2.00000
      7       5.0948      2.00000
      8       5.1827      2.00000
      9      12.7849      0.00000
     10      13.1450      0.00000
     11      14.0559      0.00000
     12      14.2101      0.00000


--------------------------------------------------------------------------------------------------------


 soft charge-density along one line, spin component           1
         0         1         2         3         4         5         6         7         8         9
 total charge-density along one line
 
 pseudopotential strength for first ion, spin component:           1
  8.426  14.359  -0.000  -0.000  -0.000  -0.000  -0.001  -0.000
 14.359  24.471  -0.000  -0.001  -0.000  -0.000  -0.002  -0.000
 -0.000  -0.000   1.992  -0.000  -0.000   5.736  -0.000  -0.000
 -0.000  -0.001  -0.000   1.992  -0.000  -0.000   5.736  -0.000
 -0.000  -0.000  -0.000  -0.000   1.992  -0.000  -0.000   5.736
 -0.000  -0.000   5.736  -0.000  -0.000  16.439  -0.000  -0.000
 -0.001  -0.002  -0.000   5.736  -0.000  -0.000  16.440  -0.000
 -0.000  -0.000  -0.000  -0.000   5.736  -0.000  -0.000  16.439
 total augmentation occupancy for first ion, spin component:           1
  5.378  -1.828   0.000   0.023   0.000  -0.000  -0.004   0.000
 -1.828   0.658   0.000  -0.008   0.000   0.000   0.001   0.000
  0.000   0.000   1.628  -0.000   0.000  -0.143   0.000   0.000
  0.023  -0.008   0.000   1.553   0.000  -0.000  -0.135   0.000
  0.000   0.000   0.000   0.000   1.628   0.000   0.000  -0.143
 -0.000   0.000  -0.143   0.000   0.000   0.014  -0.000   0.000
 -0.004   0.001   0.000  -0.135   0.000  -0.000   0.013   0.000
  0.000   0.000   0.000   0.000  -0.143   0.000   0.000   0.014


------------------------ aborting loop because EDIFF is reached ----------------------------------------


 


 total charge     
 
# of ion       s       p       d       tot
------------------------------------------
    1        0.367   0.431   0.000   0.798
    2        0.364   0.431   0.000   0.795
    3        1.235   2.577   0.000   3.812
    4        1.235   2.576   0.000   3.810
--------------------------------------------------
tot          3.202   6.014   0.000   9.216
 
    CHARGE:  cpu time    0.0231: real time    0.0231
    FORLOC:  cpu time    0.0007: real time    0.0007
    FORNL :  cpu time    0.0274: real time    0.0274
    STRESS:  cpu time    0.1447: real time    0.1447
    FORCOR:  cpu time    0.0070: real time    0.0070
    FORHAR:  cpu time    0.0017: real time    0.0017
    MIXING:  cpu time    0.0005: real time    0.0005
    OFIELD:  cpu time    0.0000: real time    0.0000

  FORCE on cell =-STRESS in cart. coord.  units (eV):
  Direction    XX          YY          ZZ          XY          YZ          ZX
  --------------------------------------------------------------------------------------
  Alpha Z    15.37241    15.37241    15.37241
  Ewald    -197.85718  -197.85873  -192.58819    -0.00000     0.00000     0.00000
  Hartree    50.64906    50.64906    55.44945    -0.00000    -0.00000    -0.00000
  E(xc)     -62.58597   -62.58595   -62.45786    -0.00000    -0.00000     0.00000
  Local     -50.41876   -50.41766   -60.59227     0.00000    -0.00008     0.00000
  n-local    11.15690    10.48363     9.73515    -0.24319    -0.05421    -0.03700
  augment     0.63503     0.63495     0.67707     0.00000    -0.00000    -0.00000
  Kinetic   227.59911   237.36135   233.49109     6.44615     0.57410    -0.86022
  Fock        0.00000     0.00000     0.00000     0.00000     0.00000     0.00000
  -------------------------------------------------------------------------------------
  Total      -0.90517    -0.90517    -0.91314     0.00000     0.00000     0.00000
  in kB     -34.10163   -34.10164   -34.40191     0.00000     0.00000     0.00000
  external pressure =      -34.20 kB  Pullay stress =        0.00 kB


 VOLUME and BASIS-vectors are now :
 -----------------------------------------------------------------------------
  energy-cutoff  :      400.00
  volume of cell :       42.53
      direct lattice vectors                 reciprocal lattice vectors
     1.564294000 -2.709437000  0.000000000     0.319633010 -0.184540183  0.000000000
     1.564294000  2.709437000  0.000000000     0.319633010  0.184540183  0.000000000
     0.000000000  0.000000000  5.016955000     0.000000000  0.000000000  0.199324092

  length of vectors
     3.128588272  3.128588272  5.016955000     0.369080398  0.369080398  0.199324092


 FORCES acting on ions
    electron-ion (+dipol)            ewald-force                    non-local-force                 convergence-correction
 -----------------------------------------------------------------------------------------------
   -.150E-06 -.941E-04 0.290E+00   0.142E-14 0.230E-03 0.624E-01   -.223E-16 -.106E-15 -.355E+00   0.187E-14 0.333E-09 -.944E-06
   -.150E-06 -.747E-04 0.290E+00   0.392E-14 -.230E-03 0.624E-01   -.189E-16 0.249E-16 -.355E+00   -.167E-16 0.142E-09 -.944E-06
   0.176E-07 0.188E-02 0.456E-01   -.295E-14 0.243E-03 -.624E-01   0.543E-18 -.539E-19 0.199E-01   0.141E-13 0.638E-07 -.147E-03
   0.176E-07 -.712E-03 0.456E-01   -.966E-15 -.243E-03 -.624E-01   0.190E-17 0.266E-17 0.199E-01   -.762E-14 -.285E-07 -.147E-03
 -----------------------------------------------------------------------------------------------
   -.266E-06 0.996E-03 0.672E+00   0.142E-14 0.621E-15 0.169E-14   -.387E-16 -.782E-16 -.671E+00   0.833E-14 0.358E-07 -.296E-03
 
 
 POSITION                                       TOTAL-FORCE (eV/Angst)
 -----------------------------------------------------------------------------------
      1.56429     -0.90315      2.50490        -0.000000     -0.000000     -0.002793
      1.56429      0.90315      5.01338        -0.000000     -0.000000     -0.002793
      1.56429     -0.90315      4.41850        -0.000000      0.000000      0.002793
      1.56429      0.90315      1.91002         0.000000      0.000000      0.002793
 -----------------------------------------------------------------------------------
    total drift:                               -0.000000      0.000996      0.000721


--------------------------------------------------------------------------------------------------------



  FREE ENERGIE OF THE ION-ELECTRON SYSTEM (eV)
  ---------------------------------------------------
  free  energy   TOTEN  =       -29.78091548 eV

  energy  without entropy=      -29.78091548  energy(sigma->0) =      -29.78091548
 


--------------------------------------------------------------------------------------------------------


    POTLOK:  cpu time    0.0072: real time    0.0072


--------------------------------------------------------------------------------------------------------


 writing wavefunctions
     LOOP+:  cpu time    5.4090: real time    5.4095
    4ORBIT:  cpu time    0.0000: real time    0.0000
 


 total charge     
 
# of ion       s       p       d       tot
------------------------------------------
    1        0.367   0.431   0.000   0.798
    2        0.364   0.431   0.000   0.795
    3        1.235   2.577   0.000   3.812
    4        1.235   2.576   0.000   3.810
--------------------------------------------------
tot          3.202   6.014   0.000   9.216
 

 total amount of memory used by VASP MPI-rank0    46731. kBytes
=======================================================================

   base      :      30000. kBytes
   nonl-proj :       9683. kBytes
   fftplans  :       1049. kBytes
   grid      :       2227. kBytes
   one-center:         12. kBytes
   wavefun   :       3760. kBytes
 
  
  
 General timing and accounting informations for this job:
 ========================================================
  
                  Total CPU time used (sec):        5.786
                            User time (sec):        5.454
                          System time (sec):        0.332
                         Elapsed time (sec):        6.032
  
                   Maximum memory used (kb):      105260.
                   Average memory used (kb):           0.
  
                          Minor page faults:         9826
                          Major page faults:            0
                 Voluntary context switches:           56
