<?xml version="1.0" encoding="ISO-8859-1"?>
<modeling>
 <generator>
  <i name="program" type="string">vasp </i>
  <i name="version" type="string">5.3.5  </i>
  <i name="subversion" type="string">31Mar14 (build Jul 11 2014 22:06:56) complex                          parallel </i>
  <i name="platform" type="string">LinuxIFC </i>
  <i name="date" type="string">2020 11 29 </i>
  <i name="time" type="string">08:50:12 </i>
 </generator>
 <incar>
  <i type="string" name="PREC">accurate</i>
  <i type="string" name="ALGO"> Fast</i>
  <i name="EDIFF">      0.00040000</i>
  <i name="ENCUT">    400.00000000</i>
  <i name="SIGMA">      0.05000000</i>
  <i type="logical" name="LORBIT"> F  </i>
 </incar>
 <kpoints>
  <generation param="Gamma">
   <v type="int" name="divisions">       5        5        5 </v>
   <v name="usershift">      0.00000000       0.00000000       0.00000000 </v>
   <v name="genvec1">      0.20000000       0.00000000       0.00000000 </v>
   <v name="genvec2">      0.00000000       0.20000000       0.00000000 </v>
   <v name="genvec3">      0.00000000       0.00000000       0.20000000 </v>
   <v name="shift">      0.00000000       0.00000000       0.00000000 </v>
  </generation>
  <varray name="kpointlist" >
   <v>       0.00000000       0.00000000       0.00000000 </v>
   <v>       0.20000000       0.00000000       0.00000000 </v>
   <v>       0.40000000       0.00000000       0.00000000 </v>
   <v>       0.20000000       0.20000000       0.00000000 </v>
   <v>       0.40000000       0.20000000       0.00000000 </v>
   <v>      -0.40000000       0.20000000       0.00000000 </v>
   <v>      -0.20000000       0.20000000       0.00000000 </v>
   <v>       0.40000000       0.40000000       0.00000000 </v>
   <v>      -0.40000000       0.40000000       0.00000000 </v>
   <v>      -0.40000000       0.40000000       0.20000000 </v>
  </varray>
  <varray name="weights" >
   <v>       0.00800000 </v>
   <v>       0.06400000 </v>
   <v>       0.06400000 </v>
   <v>       0.04800000 </v>
   <v>       0.19200000 </v>
   <v>       0.19200000 </v>
   <v>       0.09600000 </v>
   <v>       0.04800000 </v>
   <v>       0.09600000 </v>
   <v>       0.19200000 </v>
  </varray>
 </kpoints>
 <parameters>
  <separator name="general" >
   <i type="string" name="SYSTEM">unknown system</i>
   <i type="logical" name="LCOMPAT"> F  </i>
  </separator>
  <separator name="electronic" >
   <i type="string" name="PREC">accura</i>
   <i name="ENMAX">    400.00000000</i>
   <i name="ENAUG">    627.11200000</i>
   <i name="EDIFF">      0.00040000</i>
   <i type="int" name="IALGO">    68</i>
   <i type="int" name="IWAVPR">    10</i>
   <i type="int" name="NBANDS">    16</i>
   <i name="NELECT">     18.00000000</i>
   <i type="int" name="TURBO">     0</i>
   <i type="int" name="IRESTART">     0</i>
   <i type="int" name="NREBOOT">     0</i>
   <i type="int" name="NMIN">     0</i>
   <i name="EREF">      0.00000000</i>
   <separator name="electronic smearing" >
    <i type="int" name="ISMEAR">     1</i>
    <i name="SIGMA">      0.05000000</i>
    <i name="KSPACING">      0.50000000</i>
    <i type="logical" name="KGAMMA"> T  </i>
   </separator>
   <separator name="electronic projectors" >
    <i type="logical" name="LREAL"> F  </i>
    <v name="ROPT">      0.00000000      0.00000000</v>
    <i type="int" name="LMAXPAW">  -100</i>
    <i type="int" name="LMAXMIX">     2</i>
    <i type="logical" name="NLSPLINE"> F  </i>
   </separator>
   <separator name="electronic startup" >
    <i type="int" name="ISTART">     0</i>
    <i type="int" name="ICHARG">     2</i>
    <i type="int" name="INIWAV">     1</i>
   </separator>
   <separator name="electronic spin" >
    <i type="int" name="ISPIN">     1</i>
    <i type="logical" name="LNONCOLLINEAR"> F  </i>
    <v name="MAGMOM">      1.00000000      1.00000000</v>
    <i name="NUPDOWN">     -1.00000000</i>
    <i type="logical" name="LSORBIT"> F  </i>
    <v name="SAXIS">      0.00000000      0.00000000      1.00000000</v>
    <i type="logical" name="LSPIRAL"> F  </i>
    <v name="QSPIRAL">      0.00000000      0.00000000      0.00000000</v>
    <i type="logical" name="LZEROZ"> F  </i>
   </separator>
   <separator name="electronic exchange-correlation" >
    <i type="logical" name="LASPH"> F  </i>
    <i type="logical" name="LMETAGGA"> F  </i>
   </separator>
   <separator name="electronic convergence" >
    <i type="int" name="NELM">    60</i>
    <i type="int" name="NELMDL">    -5</i>
    <i type="int" name="NELMIN">     2</i>
    <i name="ENINI">    400.00000000</i>
    <separator name="electronic convergence detail" >
     <i type="logical" name="LDIAG"> T  </i>
     <i type="logical" name="LSUBROT"> F  </i>
     <i name="WEIMIN">      0.00000000</i>
     <i name="EBREAK">      0.00000625</i>
     <i name="DEPER">      0.30000000</i>
     <i type="int" name="NRMM">     4</i>
     <i name="TIME">      0.40000000</i>
    </separator>
   </separator>
   <separator name="electronic mixer" >
    <i name="AMIX">      0.40000000</i>
    <i name="BMIX">      1.00000000</i>
    <i name="AMIN">      0.10000000</i>
    <i name="AMIX_MAG">      1.60000000</i>
    <i name="BMIX_MAG">      1.00000000</i>
    <separator name="electronic mixer details" >
     <i type="int" name="IMIX">     4</i>
     <i type="int" name="MAXMIX">   -45</i>
     <i name="WC">    100.00000000</i>
     <i type="int" name="INIMIX">     1</i>
     <i type="int" name="MIXPRE">     1</i>
     <i type="int" name="MREMOVE">     5</i>
    </separator>
   </separator>
   <separator name="electronic dipolcorrection" >
    <i type="logical" name="LDIPOL"> F  </i>
    <i type="logical" name="LMONO"> F  </i>
    <i type="int" name="IDIPOL">     0</i>
    <i name="EPSILON">      1.00000000</i>
    <v name="DIPOL">   -100.00000000   -100.00000000   -100.00000000</v>
    <i name="EFIELD">      0.00000000</i>
   </separator>
  </separator>
  <separator name="grids" >
   <i type="int" name="NGX">    24</i>
   <i type="int" name="NGY">    24</i>
   <i type="int" name="NGZ">    24</i>
   <i type="int" name="NGXF">    48</i>
   <i type="int" name="NGYF">    48</i>
   <i type="int" name="NGZF">    48</i>
   <i type="logical" name="ADDGRID"> F  </i>
  </separator>
  <separator name="ionic" >
   <i type="int" name="NSW">     0</i>
   <i type="int" name="IBRION">    -1</i>
   <i type="int" name="ISIF">     2</i>
   <i name="PSTRESS">      0.00000000</i>
   <i name="EDIFFG">      0.00400000</i>
   <i type="int" name="NFREE">     0</i>
   <i name="POTIM">      0.50000000</i>
   <i name="SMASS">     -3.00000000</i>
   <i name="SCALEE">      1.00000000</i>
  </separator>
  <separator name="ionic md" >
   <i name="TEBEG">      0.00010000</i>
   <i name="TEEND">      0.00010000</i>
   <i type="int" name="NBLOCK">     1</i>
   <i type="int" name="KBLOCK">     1</i>
   <i type="int" name="NPACO">   256</i>
   <i name="APACO">     16.00000000</i>
  </separator>
  <separator name="symmetry" >
   <i type="int" name="ISYM">     2</i>
   <i name="SYMPREC">      0.00001000</i>
  </separator>
  <separator name="dos" >
   <i type="logical" name="LORBIT"> F  </i>
   <v name="RWIGS">     -1.00000000     -1.00000000</v>
   <i type="int" name="NEDOS">   301</i>
   <i name="EMIN">     10.00000000</i>
   <i name="EMAX">    -10.00000000</i>
   <i name="EFERMI">      0.00000000</i>
  </separator>
  <separator name="writing" >
   <i type="int" name="NWRITE">     2</i>
   <i type="logical" name="LWAVE"> T  </i>
   <i type="logical" name="LCHARG"> T  </i>
   <i type="logical" name="LPARD"> F  </i>
   <i type="logical" name="LVTOT"> F  </i>
   <i type="logical" name="LVHAR"> F  </i>
   <i type="logical" name="LELF"> F  </i>
   <i type="logical" name="LOPTICS"> F  </i>
   <v name="STM">      0.00000000      0.00000000      0.00000000      0.00000000      0.00000000      0.00000000      0.00000000</v>
  </separator>
  <separator name="performance" >
   <i type="int" name="NPAR">     4</i>
   <i type="int" name="NSIM">     4</i>
   <i type="int" name="NBLK">    -1</i>
   <i type="logical" name="LPLANE"> T  </i>
   <i type="logical" name="LSCALAPACK"> T  </i>
   <i type="logical" name="LSCAAWARE"> F  </i>
   <i type="logical" name="LSCALU"> F  </i>
   <i type="logical" name="LASYNC"> F  </i>
   <i type="logical" name="LORBITALREAL"> F  </i>
  </separator>
  <separator name="miscellaneous" >
   <i type="int" name="IDIOT">     3</i>
   <i type="logical" name="LMUSIC"> F  </i>
   <v name="POMASS">     69.72300000     14.00100000</v>
   <v name="DARWINR">      0.00000000      0.00000000</v>
   <v name="DARWINV">      1.00000000      1.00000000</v>
   <i type="logical" name="LCORR"> T  </i>
  </separator>
  <i type="logical" name="GGA_COMPAT"> T  </i>
  <i type="logical" name="LBERRY"> F  </i>
  <i type="int" name="ICORELEVEL">     0</i>
  <i type="logical" name="LDAU"> F  </i>
  <i type="int" name="I_CONSTRAINED_M">     0</i>
  <separator name="electronic exchange-correlation" >
   <i type="string" name="GGA">--</i>
   <i type="int" name="VOSKOWN">     0</i>
   <i type="logical" name="LHFCALC"> F  </i>
   <i type="string" name="PRECFOCK"></i>
   <i type="logical" name="LSYMGRAD"> F  </i>
   <i type="logical" name="LHFONE"> F  </i>
   <i type="logical" name="LRHFCALC"> F  </i>
   <i type="logical" name="LTHOMAS"> F  </i>
   <i type="logical" name="LMODELHF"> F  </i>
   <i name="ENCUT4O">     -1.00000000</i>
   <i type="int" name="EXXOEP">     0</i>
   <i type="int" name="FOURORBIT">     0</i>
   <i name="AEXX">      0.00000000</i>
   <i name="HFALPHA">      0.00000000</i>
   <i name="MCALPHA">      0.00000000</i>
   <i name="ALDAX">      1.00000000</i>
   <i name="AGGAX">      1.00000000</i>
   <i name="ALDAC">      1.00000000</i>
   <i name="AGGAC">      1.00000000</i>
   <i type="int" name="NKREDX">     1</i>
   <i type="int" name="NKREDY">     1</i>
   <i type="int" name="NKREDZ">     1</i>
   <i type="logical" name="SHIFTRED"> F  </i>
   <i type="logical" name="ODDONLY"> F  </i>
   <i type="logical" name="EVENONLY"> F  </i>
   <i type="int" name="LMAXFOCK">     0</i>
   <i type="int" name="NMAXFOCKAE">     0</i>
   <i type="logical" name="LFOCKAEDFT"> F  </i>
   <i name="HFSCREEN">      0.00000000</i>
   <i name="HFSCREENC">      0.00000000</i>
   <i type="int" name="NBANDSGWLOW">     0</i>
  </separator>
  <separator name="vdW DFT" >
   <i type="logical" name="LUSE_VDW"> F  </i>
   <i name="Zab_VDW">     -0.84910000</i>
   <i name="PARAM1">      0.12340000</i>
   <i name="PARAM2">      1.00000000</i>
   <i name="PARAM3">      0.00000000</i>
  </separator>
  <separator name="model GW" >
   <i type="int" name="MODEL_GW">     0</i>
   <i name="MODEL_EPS0">      7.04146340</i>
   <i name="MODEL_ALPHA">      1.00000000</i>
  </separator>
  <separator name="linear response parameters" >
   <i type="logical" name="LEPSILON"> F  </i>
   <i type="logical" name="LRPA"> F  </i>
   <i type="logical" name="LNABLA"> F  </i>
   <i type="logical" name="LVEL"> F  </i>
   <i type="int" name="KINTER">     0</i>
   <i name="CSHIFT">      0.10000000</i>
   <i name="OMEGAMAX">     -1.00000000</i>
   <i name="DEG_THRESHOLD">      0.00200000</i>
  </separator>
  <separator name="orbital magnetization" >
   <i type="logical" name="NUCIND"> F  </i>
   <v name="MAGPOS">      0.00000000      0.00000000      0.00000000</v>
   <i type="logical" name="LNICSALL"> T  </i>
   <i type="logical" name="ORBITALMAG"> F  </i>
   <i type="logical" name="LMAGBLOCH"> F  </i>
   <i type="logical" name="LCHIMAG"> F  </i>
   <i type="logical" name="LGAUGE"> T  </i>
   <i type="int" name="MAGATOM">     0</i>
   <v name="MAGDIPOL">      0.00000000      0.00000000      0.00000000</v>
   <v name="AVECCONST">      0.00000000      0.00000000      0.00000000</v>
  </separator>
  <separator name="response functions" >
   <i type="logical" name="LADDER"> F  </i>
   <i type="logical" name="LFXC"> F  </i>
   <i type="logical" name="LHARTREE"> T  </i>
   <i type="int" name="IBSE">     0</i>
   <i type="logical" name="LTCTE"> F  </i>
   <i type="logical" name="LTETE"> F  </i>
   <i type="logical" name="LTRIPLET"> F  </i>
   <i type="logical" name="LFXCEPS"> F  </i>
   <i type="logical" name="LFXHEG"> F  </i>
   <i type="logical" name="L2ORDER"> F  </i>
   <i type="logical" name="LUSEW"> F  </i>
   <i name="ENCUTGW">     -2.00000000</i>
   <i name="ENCUTGWSOFT">     -2.00000000</i>
   <i name="ENCUTLF">     -1.00000000</i>
   <i type="int" name="LMAXMP2">    -1</i>
   <i name="SCISSOR">      0.00000000</i>
   <i type="int" name="NOMEGA">     0</i>
   <i type="int" name="NOMEGAR">     0</i>
   <i type="int" name="NBANDSGW">    -1</i>
   <i type="int" name="NBANDSO">    -1</i>
   <i type="int" name="NBANDSV">    -1</i>
   <i type="int" name="NELM">     1</i>
   <i type="int" name="DIM">     3</i>
   <i type="int" name="ANTIRES">     0</i>
   <i name="OMEGAMAX">    -30.00000000</i>
   <i name="OMEGAMIN">    -30.00000000</i>
   <i name="OMEGATL">   -200.00000000</i>
   <i type="int" name="OMEGAGRID">     0</i>
   <i name="CSHIFT">     -0.10000000</i>
   <i type="logical" name="SELFENERGY"> F  </i>
   <i type="logical" name="LSPECTRAL"> F  </i>
   <i type="logical" name="ODDONLYGW"> F  </i>
   <i type="logical" name="EVENONLYGW"> F  </i>
   <i type="int" name="NKREDLFX">     1</i>
   <i type="int" name="NKREDLFY">     1</i>
   <i type="int" name="NKREDLFZ">     1</i>
   <i type="int" name="MAXMEM">  1800</i>
   <i type="int" name="TELESCOPE">     0</i>
   <i type="int" name="TAUPAR">     1</i>
  </separator>
  <separator name="External order field" >
   <i name="OFIELD_KAPPA">      0.00000000</i>
   <v name="OFIELD_K">      0.00000000      0.00000000      0.00000000</v>
   <i name="OFIELD_Q6_NEAR">      0.00000000</i>
   <i name="OFIELD_Q6_FAR">      0.00000000</i>
   <i name="OFIELD_A">      0.00000000</i>
  </separator>
 </parameters>
 <atominfo>
  <atoms>       2 </atoms>
  <types>       2 </types>
  <array name="atoms" >
   <dimension dim="1">ion</dimension>
   <field type="string">element</field>
   <field type="int">atomtype</field>
   <set>
    <rc><c>Ga</c><c>   1</c></rc>
    <rc><c>N </c><c>   2</c></rc>
   </set>
  </array>
  <array name="atomtypes" >
   <dimension dim="1">type</dimension>
   <field type="int">atomspertype</field>
   <field type="string">element</field>
   <field>mass</field>
   <field>valence</field>
   <field type="string">pseudopotential</field>
   <set>
    <rc><c>   1</c><c>Ga</c><c>     69.72300000</c><c>     13.00000000</c><c>  PAW_PBE Ga_d 06Jul2010                </c></rc>
    <rc><c>   1</c><c>N </c><c>     14.00100000</c><c>      5.00000000</c><c>  PAW_PBE N 08Apr2002                   </c></rc>
   </set>
  </array>
 </atominfo>
 <structure name="initialpos" >
  <crystal>
   <varray name="basis" >
    <v>       2.27250000       0.00000000       2.27250000 </v>
    <v>       2.27250000       2.27250000       0.00000000 </v>
    <v>       0.00000000       2.27250000       2.27250000 </v>
   </varray>
   <i name="volume">     23.47154466 </i>
   <varray name="rec_basis" >
    <v>       0.22002200      -0.22002200       0.22002200 </v>
    <v>       0.22002200       0.22002200      -0.22002200 </v>
    <v>      -0.22002200       0.22002200       0.22002200 </v>
   </varray>
  </crystal>
  <varray name="positions" >
   <v>       0.00000000       0.00000000       0.00000000 </v>
   <v>       0.25000000       0.25000000       0.25000000 </v>
  </varray>
 </structure>
 <calculation>
  <scstep>
   <time name="dav">    0.17    0.29</time>
   <time name="total">    0.25    0.41</time>
   <energy>
    <i name="alphaZ">     96.18607301 </i>
    <i name="ewald">  -1574.17859740 </i>
    <i name="hartreedc">   -583.82822471 </i>
    <i name="XCdc">     64.24664499 </i>
    <i name="pawpsdc">   1808.08845660 </i>
    <i name="pawaedc">  -2142.83247639 </i>
    <i name="eentropy">     -0.00268460 </i>
    <i name="bandstr">    -10.29128039 </i>
    <i name="atom">   2413.29462696 </i>
    <i name="e_fr_energy">     70.68253806 </i>
    <i name="e_wo_entrp">     70.68522266 </i>
    <i name="e_0_energy">     70.68343293 </i>
   </energy>
  </scstep>
  <scstep>
   <time name="dav">    0.18    0.18</time>
   <time name="total">    0.18    0.18</time>
   <energy>
    <i name="e_fr_energy">     -9.62516892 </i>
    <i name="e_wo_entrp">     -9.62519211 </i>
    <i name="e_0_energy">     -9.62517665 </i>
   </energy>
  </scstep>
  <scstep>
   <time name="dav">    0.17    0.17</time>
   <time name="total">    0.17    0.17</time>
   <energy>
    <i name="e_fr_energy">    -14.04508482 </i>
    <i name="e_wo_entrp">    -14.04515865 </i>
    <i name="e_0_energy">    -14.04510943 </i>
   </energy>
  </scstep>
  <scstep>
   <time name="dav">    0.19    0.19</time>
   <time name="total">    0.19    0.20</time>
   <energy>
    <i name="e_fr_energy">    -14.08986274 </i>
    <i name="e_wo_entrp">    -14.08993232 </i>
    <i name="e_0_energy">    -14.08988593 </i>
   </energy>
  </scstep>
  <scstep>
   <time name="dav">    0.16    0.17</time>
   <time name="total">    0.20    0.20</time>
   <energy>
    <i name="e_fr_energy">    -14.09039101 </i>
    <i name="e_wo_entrp">    -14.09046059 </i>
    <i name="e_0_energy">    -14.09041420 </i>
   </energy>
  </scstep>
  <scstep>
   <time name="diag">    0.04    0.05</time>
   <time name="diis">    0.19    0.19</time>
   <time name="orth">    0.00    0.00</time>
   <time name="total">    0.33    0.37</time>
   <energy>
    <i name="e_fr_energy">    -12.14567377 </i>
    <i name="e_wo_entrp">    -12.14574335 </i>
    <i name="e_0_energy">    -12.14569696 </i>
   </energy>
  </scstep>
  <scstep>
   <time name="diag">    0.04    0.04</time>
   <time name="diis">    0.19    0.19</time>
   <time name="orth">    0.00    0.00</time>
   <time name="total">    0.33    0.34</time>
   <energy>
    <i name="e_fr_energy">    -12.14329550 </i>
    <i name="e_wo_entrp">    -12.14336507 </i>
    <i name="e_0_energy">    -12.14331869 </i>
   </energy>
  </scstep>
  <scstep>
   <time name="diag">    0.04    0.04</time>
   <time name="diis">    0.18    0.19</time>
   <time name="orth">    0.00    0.00</time>
   <time name="total">    0.33    0.33</time>
   <energy>
    <i name="e_fr_energy">    -12.13905032 </i>
    <i name="e_wo_entrp">    -12.13911990 </i>
    <i name="e_0_energy">    -12.13907351 </i>
   </energy>
  </scstep>
  <scstep>
   <time name="diag">    0.04    0.04</time>
   <time name="diis">    0.19    0.19</time>
   <time name="orth">    0.00    0.00</time>
   <time name="total">    0.34    0.34</time>
   <energy>
    <i name="e_fr_energy">    -12.13542630 </i>
    <i name="e_wo_entrp">    -12.13549587 </i>
    <i name="e_0_energy">    -12.13544949 </i>
   </energy>
  </scstep>
  <scstep>
   <time name="diag">    0.04    0.04</time>
   <time name="diis">    0.14    0.14</time>
   <time name="orth">    0.00    0.00</time>
   <time name="total">    0.26    0.26</time>
   <energy>
    <i name="alphaZ">     96.18607301 </i>
    <i name="ewald">  -1574.17859740 </i>
    <i name="hartreedc">   -585.96301042 </i>
    <i name="XCdc">     64.84797695 </i>
    <i name="pawpsdc">   2220.94554818 </i>
    <i name="pawaedc">  -2559.38397106 </i>
    <i name="eentropy">      0.00006957 </i>
    <i name="bandstr">    -87.88408467 </i>
    <i name="atom">   2413.29462696 </i>
    <i name="e_fr_energy">    -12.13536887 </i>
    <i name="e_wo_entrp">    -12.13543845 </i>
    <i name="e_0_energy">    -12.13539206 </i>
   </energy>
  </scstep>
  <structure>
   <crystal>
    <varray name="basis" >
     <v>       2.27250000       0.00000000       2.27250000 </v>
     <v>       2.27250000       2.27250000       0.00000000 </v>
     <v>       0.00000000       2.27250000       2.27250000 </v>
    </varray>
    <i name="volume">     23.47154466 </i>
    <varray name="rec_basis" >
     <v>       0.22002200      -0.22002200       0.22002200 </v>
     <v>       0.22002200       0.22002200      -0.22002200 </v>
     <v>      -0.22002200       0.22002200       0.22002200 </v>
    </varray>
   </crystal>
   <varray name="positions" >
    <v>       0.00000000       0.00000000       0.00000000 </v>
    <v>       0.25000000       0.25000000       0.25000000 </v>
   </varray>
  </structure>
  <varray name="forces" >
   <v>       0.00000000       0.00000000       0.00000000 </v>
   <v>      -0.00000000      -0.00000000      -0.00000000 </v>
  </varray>
  <varray name="stress" >
   <v>     -43.44444656      -0.00000000       0.00000000 </v>
   <v>      -0.00000000     -43.44444656      -0.00000000 </v>
   <v>       0.00000000       0.00000000     -43.44444656 </v>
  </varray>
  <energy>
   <i name="e_fr_energy">    -12.13536887 </i>
   <i name="e_wo_entrp">    -12.13539206 </i>
   <i name="e_0_energy">      0.00006957 </i>
  </energy>
  <time name="totalsc">    3.18    3.44</time>
  <eigenvalues>
   <array>
    <dimension dim="1">band</dimension>
    <dimension dim="2">kpoint</dimension>
    <dimension dim="3">spin</dimension>
    <field>eigene</field>
    <field>occ</field>
    <set>
     <set comment="spin 1">
      <set comment="kpoint 1">
       <r>  -10.7177    1.0000 </r>
       <r>   -8.4053    1.0000 </r>
       <r>   -8.4053    1.0000 </r>
       <r>   -8.4053    1.0000 </r>
       <r>   -8.1117    1.0000 </r>
       <r>   -8.1117    1.0000 </r>
       <r>    5.0261    1.0000 </r>
       <r>    5.0261    1.0000 </r>
       <r>    5.0261    1.0000 </r>
       <r>    6.5642    0.0000 </r>
       <r>   15.1497    0.0000 </r>
       <r>   15.1497    0.0000 </r>
       <r>   15.1497    0.0000 </r>
       <r>   22.2650    0.0000 </r>
       <r>   23.6739    0.0000 </r>
       <r>   23.6749    0.0000 </r>
      </set>
      <set comment="kpoint 2">
       <r>  -10.3541    1.0000 </r>
       <r>   -8.3636    1.0000 </r>
       <r>   -8.3636    1.0000 </r>
       <r>   -8.1974    1.0000 </r>
       <r>   -8.1117    1.0000 </r>
       <r>   -8.1117    1.0000 </r>
       <r>    2.1234    1.0000 </r>
       <r>    4.6637    1.0000 </r>
       <r>    4.6637    1.0000 </r>
       <r>    8.5205    0.0000 </r>
       <r>   13.8895    0.0000 </r>
       <r>   15.5689    0.0000 </r>
       <r>   15.5689    0.0000 </r>
       <r>   21.2622    0.0000 </r>
       <r>   21.6318    0.0000 </r>
       <r>   21.6318    0.0000 </r>
      </set>
      <set comment="kpoint 3">
       <r>   -9.9314    1.0000 </r>
       <r>   -8.3267    1.0000 </r>
       <r>   -8.3267    1.0000 </r>
       <r>   -8.0778    1.0000 </r>
       <r>   -8.0778    1.0000 </r>
       <r>   -7.2076    1.0000 </r>
       <r>   -1.2138    1.0000 </r>
       <r>    4.1612    1.0000 </r>
       <r>    4.1612    1.0000 </r>
       <r>    9.4290    0.0000 </r>
       <r>   13.5638    0.0000 </r>
       <r>   15.3482    0.0000 </r>
       <r>   15.3482    0.0000 </r>
       <r>   20.3853    0.0000 </r>
       <r>   23.4263    0.0000 </r>
       <r>   23.4263    0.0000 </r>
      </set>
      <set comment="kpoint 4">
       <r>  -10.2432    1.0000 </r>
       <r>   -8.3158    1.0000 </r>
       <r>   -8.3158    1.0000 </r>
       <r>   -8.2530    1.0000 </r>
       <r>   -8.0870    1.0000 </r>
       <r>   -8.0744    1.0000 </r>
       <r>    2.3489    1.0000 </r>
       <r>    3.9865    1.0000 </r>
       <r>    3.9866    1.0000 </r>
       <r>    9.1369    0.0000 </r>
       <r>   12.8229    0.0000 </r>
       <r>   16.2888    0.0000 </r>
       <r>   16.2888    0.0000 </r>
       <r>   17.4304    0.0000 </r>
       <r>   25.6401    0.0000 </r>
       <r>   26.2399    0.0000 </r>
      </set>
      <set comment="kpoint 5">
       <r>   -9.8915    1.0000 </r>
       <r>   -8.3007    1.0000 </r>
       <r>   -8.2571    1.0000 </r>
       <r>   -8.1853    1.0000 </r>
       <r>   -8.0633    1.0000 </r>
       <r>   -7.3125    1.0000 </r>
       <r>   -0.0783    1.0000 </r>
       <r>    2.9821    1.0000 </r>
       <r>    3.4165    1.0000 </r>
       <r>   10.1959    0.0000 </r>
       <r>   12.4757    0.0000 </r>
       <r>   14.9876    0.0000 </r>
       <r>   16.6851    0.0000 </r>
       <r>   19.0059    0.0000 </r>
       <r>   25.0150    0.0000 </r>
       <r>   25.6399    0.0000 </r>
      </set>
      <set comment="kpoint 6">
       <r>   -9.8133    1.0000 </r>
       <r>   -8.3139    1.0000 </r>
       <r>   -8.2585    1.0000 </r>
       <r>   -8.1204    1.0000 </r>
       <r>   -8.0860    1.0000 </r>
       <r>   -6.6406    1.0000 </r>
       <r>   -1.2789    1.0000 </r>
       <r>    2.1070    1.0000 </r>
       <r>    3.6596    1.0000 </r>
       <r>   11.0456    0.0000 </r>
       <r>   12.2735    0.0000 </r>
       <r>   15.0715    0.0000 </r>
       <r>   16.2744    0.0000 </r>
       <r>   20.9384    0.0000 </r>
       <r>   23.4181    0.0000 </r>
       <r>   25.0040    0.0000 </r>
      </set>
      <set comment="kpoint 7">
       <r>  -10.0046    1.0000 </r>
       <r>   -8.3225    1.0000 </r>
       <r>   -8.3091    1.0000 </r>
       <r>   -8.1318    1.0000 </r>
       <r>   -8.1190    1.0000 </r>
       <r>   -7.6301    1.0000 </r>
       <r>    0.6026    1.0000 </r>
       <r>    2.7256    1.0000 </r>
       <r>    4.4188    1.0000 </r>
       <r>   10.3140    0.0000 </r>
       <r>   13.2310    0.0000 </r>
       <r>   14.3908    0.0000 </r>
       <r>   16.0276    0.0000 </r>
       <r>   20.3301    0.0000 </r>
       <r>   22.1275    0.0000 </r>
       <r>   25.2592    0.0000 </r>
      </set>
      <set comment="kpoint 8">
       <r>   -9.7745    1.0000 </r>
       <r>   -8.3067    1.0000 </r>
       <r>   -8.1545    1.0000 </r>
       <r>   -8.1545    1.0000 </r>
       <r>   -8.0474    1.0000 </r>
       <r>   -6.8606    1.0000 </r>
       <r>   -0.4289    1.0000 </r>
       <r>    2.6066    1.0000 </r>
       <r>    2.6066    1.0000 </r>
       <r>    8.7016    0.0000 </r>
       <r>   11.6405    0.0000 </r>
       <r>   16.2603    0.0000 </r>
       <r>   18.2978    0.0000 </r>
       <r>   18.2978    0.0000 </r>
       <r>   26.6895    0.0000 </r>
       <r>   28.3241    0.0000 </r>
      </set>
      <set comment="kpoint 9">
       <r>   -9.7395    1.0000 </r>
       <r>   -8.2991    1.0000 </r>
       <r>   -8.1656    1.0000 </r>
       <r>   -8.1532    1.0000 </r>
       <r>   -8.0645    1.0000 </r>
       <r>   -6.3065    1.0000 </r>
       <r>   -0.8126    1.0000 </r>
       <r>    1.1736    1.0000 </r>
       <r>    2.7341    1.0000 </r>
       <r>    9.5362    0.0000 </r>
       <r>   12.4441    0.0000 </r>
       <r>   16.1997    0.0000 </r>
       <r>   17.9663    0.0000 </r>
       <r>   18.1801    0.0000 </r>
       <r>   26.3818    0.0000 </r>
       <r>   27.3161    0.0000 </r>
      </set>
      <set comment="kpoint 10">
       <r>   -9.7607    1.0000 </r>
       <r>   -8.2759    1.0000 </r>
       <r>   -8.2444    1.0000 </r>
       <r>   -8.1317    1.0000 </r>
       <r>   -8.0851    1.0000 </r>
       <r>   -6.4634    1.0000 </r>
       <r>   -0.6028    1.0000 </r>
       <r>    1.3970    1.0000 </r>
       <r>    2.4846    1.0000 </r>
       <r>   11.0719    0.0000 </r>
       <r>   12.6951    0.0000 </r>
       <r>   14.5808    0.0000 </r>
       <r>   17.0004    0.0000 </r>
       <r>   19.6654    0.0000 </r>
       <r>   24.2274    0.0000 </r>
       <r>   27.7115    0.0000 </r>
      </set>
     </set>
    </set>
   </array>
  </eigenvalues>
  <separator name="orbital magnetization" >
   <v name="MAGDIPOLOUT">      0.00000000      0.00000000      0.00000000</v>
  </separator>
  <dos>
   <i name="efermi">      5.06822674 </i>
   <total>
    <array>
     <dimension dim="1">gridpoints</dimension>
     <dimension dim="2">spin</dimension>
     <field>energy</field>
     <field>total</field>
     <field>integrated</field>
     <set>
      <set comment="spin 1">
       <r>   -12.6698     0.0000     0.0000 </r>
       <r>   -12.5266     0.0000     0.0000 </r>
       <r>   -12.3835     0.0000     0.0000 </r>
       <r>   -12.2403     0.0000     0.0000 </r>
       <r>   -12.0972     0.0000     0.0000 </r>
       <r>   -11.9540     0.0000     0.0000 </r>
       <r>   -11.8109     0.0000     0.0000 </r>
       <r>   -11.6677     0.0000     0.0000 </r>
       <r>   -11.5245     0.0000     0.0000 </r>
       <r>   -11.3814     0.0000     0.0000 </r>
       <r>   -11.2382    -0.0000    -0.0000 </r>
       <r>   -11.0951    -0.0000    -0.0000 </r>
       <r>   -10.9519    -0.0000    -0.0000 </r>
       <r>   -10.8088    -0.0015    -0.0002 </r>
       <r>   -10.6656     0.1165     0.0165 </r>
       <r>   -10.5225    -0.0032     0.0160 </r>
       <r>   -10.3793     0.1137     0.0323 </r>
       <r>   -10.2362     1.1965     0.2036 </r>
       <r>   -10.0930     0.2336     0.2370 </r>
       <r>    -9.9499     1.4990     0.4516 </r>
       <r>    -9.8067     5.0839     1.1794 </r>
       <r>    -9.6636     5.7969     2.0092 </r>
       <r>    -9.5204    -0.0643     2.0000 </r>
       <r>    -9.3772    -0.0000     2.0000 </r>
       <r>    -9.2341     0.0000     2.0000 </r>
       <r>    -9.0909     0.0000     2.0000 </r>
       <r>    -8.9478    -0.0000     2.0000 </r>
       <r>    -8.8046    -0.0000     2.0000 </r>
       <r>    -8.6615    -0.0000     2.0000 </r>
       <r>    -8.5183    -0.0012     1.9998 </r>
       <r>    -8.3752     0.4256     2.0608 </r>
       <r>    -8.2320    24.8819     5.6227 </r>
       <r>    -8.0889    22.6045     8.8586 </r>
       <r>    -7.9457     9.6665    10.2424 </r>
       <r>    -7.8026    -0.0167    10.2400 </r>
       <r>    -7.6594     0.1155    10.2565 </r>
       <r>    -7.5163     1.2297    10.4326 </r>
       <r>    -7.3731    -0.0990    10.4184 </r>
       <r>    -7.2300     2.9765    10.8445 </r>
       <r>    -7.0868     0.6966    10.9442 </r>
       <r>    -6.9436    -0.0151    10.9421 </r>
       <r>    -6.8005     0.7078    11.0434 </r>
       <r>    -6.6573     0.6040    11.1299 </r>
       <r>    -6.5142     1.9861    11.4142 </r>
       <r>    -6.3710     2.7383    11.8062 </r>
       <r>    -6.2279     1.3866    12.0047 </r>
       <r>    -6.0847    -0.0326    12.0000 </r>
       <r>    -5.9416    -0.0000    12.0000 </r>
       <r>    -5.7984     0.0000    12.0000 </r>
       <r>    -5.6553     0.0000    12.0000 </r>
       <r>    -5.5121     0.0000    12.0000 </r>
       <r>    -5.3690     0.0000    12.0000 </r>
       <r>    -5.2258     0.0000    12.0000 </r>
       <r>    -5.0827     0.0000    12.0000 </r>
       <r>    -4.9395     0.0000    12.0000 </r>
       <r>    -4.7963     0.0000    12.0000 </r>
       <r>    -4.6532     0.0000    12.0000 </r>
       <r>    -4.5100     0.0000    12.0000 </r>
       <r>    -4.3669     0.0000    12.0000 </r>
       <r>    -4.2237     0.0000    12.0000 </r>
       <r>    -4.0806     0.0000    12.0000 </r>
       <r>    -3.9374     0.0000    12.0000 </r>
       <r>    -3.7943     0.0000    12.0000 </r>
       <r>    -3.6511     0.0000    12.0000 </r>
       <r>    -3.5080     0.0000    12.0000 </r>
       <r>    -3.3648     0.0000    12.0000 </r>
       <r>    -3.2217     0.0000    12.0000 </r>
       <r>    -3.0785     0.0000    12.0000 </r>
       <r>    -2.9354     0.0000    12.0000 </r>
       <r>    -2.7922     0.0000    12.0000 </r>
       <r>    -2.6490     0.0000    12.0000 </r>
       <r>    -2.5059     0.0000    12.0000 </r>
       <r>    -2.3627     0.0000    12.0000 </r>
       <r>    -2.2196     0.0000    12.0000 </r>
       <r>    -2.0764     0.0000    12.0000 </r>
       <r>    -1.9333     0.0000    12.0000 </r>
       <r>    -1.7901    -0.0000    12.0000 </r>
       <r>    -1.6470    -0.0000    12.0000 </r>
       <r>    -1.5038    -0.0000    12.0000 </r>
       <r>    -1.3607    -0.0575    11.9918 </r>
       <r>    -1.2175     3.2265    12.4537 </r>
       <r>    -1.0744     0.4078    12.5120 </r>
       <r>    -0.9312    -0.0030    12.5116 </r>
       <r>    -0.7881     1.1634    12.6782 </r>
       <r>    -0.6449     0.1805    12.7040 </r>
       <r>    -0.5018     2.6826    13.0880 </r>
       <r>    -0.3586     0.6916    13.1870 </r>
       <r>    -0.2154    -0.0221    13.1839 </r>
       <r>    -0.0723     1.6138    13.4149 </r>
       <r>     0.0709     1.0699    13.5680 </r>
       <r>     0.2140    -0.0003    13.5680 </r>
       <r>     0.3572    -0.0000    13.5680 </r>
       <r>     0.5003    -0.0093    13.5667 </r>
       <r>     0.6435     1.3432    13.7590 </r>
       <r>     0.7866     0.0072    13.7600 </r>
       <r>     0.9298    -0.0000    13.7600 </r>
       <r>     1.0729    -0.0103    13.7585 </r>
       <r>     1.2161     1.3538    13.9523 </r>
       <r>     1.3592     0.0572    13.9605 </r>
       <r>     1.5024     2.6379    14.3381 </r>
       <r>     1.6455    -0.0149    14.3360 </r>
       <r>     1.7887    -0.0000    14.3360 </r>
       <r>     1.9319    -0.0000    14.3360 </r>
       <r>     2.0750     0.1498    14.3574 </r>
       <r>     2.2182     3.4460    14.8507 </r>
       <r>     2.3613     0.4491    14.9150 </r>
       <r>     2.5045     2.3632    15.2533 </r>
       <r>     2.6476     1.7996    15.5110 </r>
       <r>     2.7908     2.8376    15.9172 </r>
       <r>     2.9339    -0.1479    15.8960 </r>
       <r>     3.0771     2.7675    16.2922 </r>
       <r>     3.2202    -0.0292    16.2880 </r>
       <r>     3.3634    -0.0815    16.2763 </r>
       <r>     3.5065     2.8024    16.6775 </r>
       <r>     3.6497     0.8624    16.8010 </r>
       <r>     3.7928     1.7830    17.0562 </r>
       <r>     3.9360    -0.0366    17.0510 </r>
       <r>     4.0792     1.3553    17.2450 </r>
       <r>     4.2223     1.8728    17.5131 </r>
       <r>     4.3655    -0.1047    17.4981 </r>
       <r>     4.5086     1.4020    17.6988 </r>
       <r>     4.6518     0.5237    17.7738 </r>
       <r>     4.7949     1.2463    17.9522 </r>
       <r>     4.9381    -0.0065    17.9512 </r>
       <r>     5.0812     0.3516    18.0016 </r>
       <r>     5.2244    -0.0110    18.0000 </r>
       <r>     5.3675    -0.0000    18.0000 </r>
       <r>     5.5107     0.0000    18.0000 </r>
       <r>     5.6538     0.0000    18.0000 </r>
       <r>     5.7970     0.0000    18.0000 </r>
       <r>     5.9401     0.0000    18.0000 </r>
       <r>     6.0833    -0.0000    18.0000 </r>
       <r>     6.2264    -0.0000    18.0000 </r>
       <r>     6.3696    -0.0000    18.0000 </r>
       <r>     6.5128    -0.0031    17.9996 </r>
       <r>     6.6559     0.1163    18.0162 </r>
       <r>     6.7991    -0.0015    18.0160 </r>
       <r>     6.9422    -0.0000    18.0160 </r>
       <r>     7.0854     0.0000    18.0160 </r>
       <r>     7.2285     0.0000    18.0160 </r>
       <r>     7.3717     0.0000    18.0160 </r>
       <r>     7.5148     0.0000    18.0160 </r>
       <r>     7.6580     0.0000    18.0160 </r>
       <r>     7.8011     0.0000    18.0160 </r>
       <r>     7.9443     0.0000    18.0160 </r>
       <r>     8.0874    -0.0000    18.0160 </r>
       <r>     8.2306    -0.0000    18.0160 </r>
       <r>     8.3737    -0.0001    18.0160 </r>
       <r>     8.5169     0.3923    18.0721 </r>
       <r>     8.6601     0.5038    18.1443 </r>
       <r>     8.8032     0.6735    18.2407 </r>
       <r>     8.9464    -0.0048    18.2400 </r>
       <r>     9.0895    -0.0126    18.2382 </r>
       <r>     9.2327     0.6902    18.3370 </r>
       <r>     9.3758    -0.0344    18.3321 </r>
       <r>     9.5190     1.2386    18.5094 </r>
       <r>     9.6621     1.0256    18.6562 </r>
       <r>     9.8053    -0.0014    18.6560 </r>
       <r>     9.9484    -0.0000    18.6560 </r>
       <r>    10.0916    -0.0160    18.6537 </r>
       <r>    10.2347     2.6226    19.0291 </r>
       <r>    10.3779     1.4641    19.2387 </r>
       <r>    10.5210    -0.0470    19.2320 </r>
       <r>    10.6642    -0.0000    19.2320 </r>
       <r>    10.8074    -0.0000    19.2320 </r>
       <r>    10.9505    -0.0333    19.2272 </r>
       <r>    11.0937     5.0035    19.9435 </r>
       <r>    11.2368     0.3947    20.0000 </r>
       <r>    11.3800    -0.0000    20.0000 </r>
       <r>    11.5231    -0.0015    19.9998 </r>
       <r>    11.6663     0.5908    20.0844 </r>
       <r>    11.8094     0.0813    20.0960 </r>
       <r>    11.9526    -0.0000    20.0960 </r>
       <r>    12.0957    -0.0000    20.0960 </r>
       <r>    12.2389     0.1145    20.1124 </r>
       <r>    12.3820     2.5008    20.4704 </r>
       <r>    12.5252     4.1845    21.0694 </r>
       <r>    12.6683     0.2038    21.0986 </r>
       <r>    12.8115     2.6009    21.4709 </r>
       <r>    12.9547     0.4551    21.5361 </r>
       <r>    13.0978    -0.0011    21.5359 </r>
       <r>    13.2410     0.8931    21.6638 </r>
       <r>    13.3841     0.4489    21.7280 </r>
       <r>    13.5273     0.0267    21.7318 </r>
       <r>    13.6704     0.8719    21.8567 </r>
       <r>    13.8136    -0.0286    21.8526 </r>
       <r>    13.9567     0.9482    21.9883 </r>
       <r>    14.0999    -0.0300    21.9840 </r>
       <r>    14.2430    -0.0002    21.9840 </r>
       <r>    14.3862     0.5656    22.0649 </r>
       <r>    14.5293     0.7015    22.1654 </r>
       <r>    14.6725     2.7920    22.5650 </r>
       <r>    14.8156    -0.0353    22.5600 </r>
       <r>    14.9588     0.2345    22.5936 </r>
       <r>    15.1019     4.9268    23.2989 </r>
       <r>    15.2451     0.5308    23.3748 </r>
       <r>    15.3883     1.7787    23.6295 </r>
       <r>    15.5314     0.0601    23.6381 </r>
       <r>    15.6746     1.7556    23.8894 </r>
       <r>    15.8177    -0.0098    23.8880 </r>
       <r>    15.9609    -0.0454    23.8815 </r>
       <r>    16.1040     1.4079    24.0830 </r>
       <r>    16.2472     1.8254    24.3444 </r>
       <r>    16.3903     4.2058    24.9464 </r>
       <r>    16.5335    -0.0171    24.9440 </r>
       <r>    16.6766     0.9644    25.0820 </r>
       <r>    16.8198     1.7194    25.3282 </r>
       <r>    16.9629     0.0638    25.3373 </r>
       <r>    17.1061     2.6320    25.7141 </r>
       <r>    17.2492    -0.0146    25.7120 </r>
       <r>    17.3924     0.0141    25.7140 </r>
       <r>    17.5356     0.6603    25.8085 </r>
       <r>    17.6787    -0.0038    25.8080 </r>
       <r>    17.8219    -0.0002    25.8080 </r>
       <r>    17.9650     0.6420    25.8999 </r>
       <r>    18.1082     0.6592    25.9942 </r>
       <r>    18.2513     1.4010    26.1948 </r>
       <r>    18.3945     1.3350    26.3859 </r>
       <r>    18.5376    -0.0132    26.3840 </r>
       <r>    18.6808    -0.0000    26.3840 </r>
       <r>    18.8239    -0.0000    26.3840 </r>
       <r>    18.9671     0.0436    26.3902 </r>
       <r>    19.1102     2.6548    26.7703 </r>
       <r>    19.2534    -0.0160    26.7680 </r>
       <r>    19.3965    -0.0000    26.7680 </r>
       <r>    19.5397    -0.0029    26.7676 </r>
       <r>    19.6829     2.0851    27.0661 </r>
       <r>    19.8260     0.6003    27.1520 </r>
       <r>    19.9692    -0.0001    27.1520 </r>
       <r>    20.1123    -0.0000    27.1520 </r>
       <r>    20.2555    -0.0382    27.1465 </r>
       <r>    20.3986     2.0640    27.4420 </r>
       <r>    20.5418     0.2095    27.4720 </r>
       <r>    20.6849    -0.0000    27.4720 </r>
       <r>    20.8281    -0.0104    27.4705 </r>
       <r>    20.9712     2.5411    27.8343 </r>
       <r>    21.1144     0.1517    27.8560 </r>
       <r>    21.2575     0.3776    27.9100 </r>
       <r>    21.4007     0.5169    27.9840 </r>
       <r>    21.5438    -0.0290    27.9799 </r>
       <r>    21.6870     1.8756    28.2484 </r>
       <r>    21.8301    -0.0587    28.2400 </r>
       <r>    21.9733    -0.0001    28.2400 </r>
       <r>    22.1165     0.4267    28.3011 </r>
       <r>    22.2596     0.9611    28.4387 </r>
       <r>    22.4028     0.0653    28.4480 </r>
       <r>    22.5459    -0.0000    28.4480 </r>
       <r>    22.6891     0.0000    28.4480 </r>
       <r>    22.8322     0.0000    28.4480 </r>
       <r>    22.9754    -0.0000    28.4480 </r>
       <r>    23.1185    -0.0000    28.4480 </r>
       <r>    23.2617    -0.0001    28.4480 </r>
       <r>    23.4048     1.0682    28.6009 </r>
       <r>    23.5480     3.4072    29.0886 </r>
       <r>    23.6911     0.1668    29.1125 </r>
       <r>    23.8343     0.0522    29.1200 </r>
       <r>    23.9774    -0.0000    29.1200 </r>
       <r>    24.1206    -0.0135    29.1181 </r>
       <r>    24.2638     2.6134    29.4922 </r>
       <r>    24.4069     0.0826    29.5040 </r>
       <r>    24.5501    -0.0000    29.5040 </r>
       <r>    24.6932    -0.0000    29.5040 </r>
       <r>    24.8364    -0.0000    29.5040 </r>
       <r>    24.9795     0.4637    29.5704 </r>
       <r>    25.1227     4.9187    30.2745 </r>
       <r>    25.2658     0.8024    30.3894 </r>
       <r>    25.4090     0.5215    30.4640 </r>
       <r>    25.5521    -0.0543    30.4562 </r>
       <r>    25.6953     3.5177    30.9598 </r>
       <r>    25.8384    -0.1105    30.9440 </r>
       <r>    25.9816    -0.0000    30.9440 </r>
       <r>    26.1247    -0.0018    30.9437 </r>
       <r>    26.2679     0.6021    31.0299 </r>
       <r>    26.4111     1.2956    31.2154 </r>
       <r>    26.5542     0.1156    31.2320 </r>
       <r>    26.6974     0.4233    31.2926 </r>
       <r>    26.8405     0.2476    31.3280 </r>
       <r>    26.9837    -0.0001    31.3280 </r>
       <r>    27.1268    -0.0000    31.3280 </r>
       <r>    27.2700    -0.0201    31.3251 </r>
       <r>    27.4131     1.3742    31.5218 </r>
       <r>    27.5563    -0.0130    31.5200 </r>
       <r>    27.6994     0.8095    31.6359 </r>
       <r>    27.8426     1.8749    31.9043 </r>
       <r>    27.9857    -0.0018    31.9040 </r>
       <r>    28.1289    -0.0000    31.9040 </r>
       <r>    28.2720    -0.0194    31.9012 </r>
       <r>    28.4152     0.6991    32.0013 </r>
       <r>    28.5583    -0.0091    32.0000 </r>
       <r>    28.7015    -0.0000    32.0000 </r>
       <r>    28.8447     0.0000    32.0000 </r>
       <r>    28.9878     0.0000    32.0000 </r>
       <r>    29.1310     0.0000    32.0000 </r>
       <r>    29.2741     0.0000    32.0000 </r>
       <r>    29.4173     0.0000    32.0000 </r>
       <r>    29.5604     0.0000    32.0000 </r>
       <r>    29.7036     0.0000    32.0000 </r>
       <r>    29.8467     0.0000    32.0000 </r>
       <r>    29.9899     0.0000    32.0000 </r>
       <r>    30.1330     0.0000    32.0000 </r>
       <r>    30.2762     0.0000    32.0000 </r>
      </set>
     </set>
    </array>
   </total>
   <partial>
    <array>
     <dimension dim="1">gridpoints</dimension>
     <dimension dim="2">spin</dimension>
     <dimension dim="3">ion</dimension>
     <field>energy</field>
     <field>  s</field>
     <field> py</field>
     <field> pz</field>
     <field> px</field>
     <field>dxy</field>
     <field>dyz</field>
     <field>dz2</field>
     <field>dxz</field>
     <field>dx2</field>
     <set>
      <set comment="ion 1">
       <set comment="spin 1">
        <r>   -12.6698     0.0000     0.0000     0.0000     0.0000     0.0000     0.0000     0.0000     0.0000     0.0000 </r>
        <r>   -12.5266     0.0000     0.0000     0.0000     0.0000     0.0000     0.0000     0.0000     0.0000     0.0000 </r>
        <r>   -12.3835     0.0000     0.0000     0.0000     0.0000     0.0000     0.0000     0.0000     0.0000     0.0000 </r>
        <r>   -12.2403     0.0000     0.0000     0.0000     0.0000     0.0000     0.0000     0.0000     0.0000     0.0000 </r>
        <r>   -12.0972     0.0000     0.0000     0.0000     0.0000     0.0000     0.0000     0.0000     0.0000     0.0000 </r>
        <r>   -11.9540     0.0000     0.0000     0.0000     0.0000     0.0000     0.0000     0.0000     0.0000     0.0000 </r>
        <r>   -11.8109     0.0000     0.0000     0.0000     0.0000     0.0000     0.0000     0.0000     0.0000     0.0000 </r>
        <r>   -11.6677     0.0000     0.0000     0.0000     0.0000     0.0000     0.0000     0.0000     0.0000     0.0000 </r>
        <r>   -11.5245     0.0000     0.0000     0.0000     0.0000     0.0000     0.0000     0.0000     0.0000     0.0000 </r>
        <r>   -11.3814     0.0000     0.0000     0.0000     0.0000     0.0000     0.0000     0.0000     0.0000     0.0000 </r>
        <r>   -11.2382    -0.0000    -0.0000    -0.0000    -0.0000    -0.0000    -0.0000    -0.0000    -0.0000    -0.0000 </r>
        <r>   -11.0951    -0.0000    -0.0000    -0.0000    -0.0000    -0.0000    -0.0000    -0.0000    -0.0000    -0.0000 </r>
        <r>   -10.9519    -0.0000    -0.0000    -0.0000    -0.0000    -0.0000    -0.0000    -0.0000    -0.0000    -0.0000 </r>
        <r>   -10.8088    -0.0003    -0.0000    -0.0000    -0.0000    -0.0000    -0.0000    -0.0000    -0.0000    -0.0000 </r>
        <r>   -10.6656     0.0255     0.0000     0.0000     0.0000     0.0000     0.0000     0.0000     0.0000     0.0000 </r>
        <r>   -10.5225    -0.0007    -0.0000    -0.0000    -0.0000    -0.0000    -0.0000    -0.0000    -0.0000    -0.0000 </r>
        <r>   -10.3793     0.0185     0.0006     0.0006     0.0006     0.0035     0.0034    -0.0000     0.0035    -0.0000 </r>
        <r>   -10.2362     0.1856     0.0039     0.0039     0.0120     0.0238     0.0768     0.0001     0.0238     0.0003 </r>
        <r>   -10.0930     0.0343    -0.0002    -0.0002     0.0049    -0.0023     0.0312     0.0001    -0.0023     0.0002 </r>
        <r>    -9.9499     0.1204     0.0174     0.0174     0.0059     0.1650     0.0985     0.0001     0.1650     0.0002 </r>
        <r>    -9.8067     0.2121     0.0285     0.0289     0.0939     0.4194     1.2135     0.0008     0.4134     0.0023 </r>
        <r>    -9.6636     0.0553     0.0426     0.0161     0.1269     0.2335     2.0397     0.0004     0.6523     0.0011 </r>
        <r>    -9.5204    -0.0003    -0.0004    -0.0001    -0.0015    -0.0020    -0.0255    -0.0000    -0.0060    -0.0000 </r>
        <r>    -9.3772    -0.0000    -0.0000    -0.0000    -0.0000    -0.0000    -0.0000    -0.0000    -0.0000    -0.0000 </r>
        <r>    -9.2341     0.0000     0.0000     0.0000     0.0000     0.0000     0.0000     0.0000     0.0000     0.0000 </r>
        <r>    -9.0909     0.0000     0.0000     0.0000     0.0000     0.0000     0.0000     0.0000     0.0000     0.0000 </r>
        <r>    -8.9478    -0.0000    -0.0000    -0.0000    -0.0000    -0.0000    -0.0000    -0.0000    -0.0000    -0.0000 </r>
        <r>    -8.8046    -0.0000    -0.0000    -0.0000    -0.0000    -0.0000    -0.0000    -0.0000    -0.0000    -0.0000 </r>
        <r>    -8.6615    -0.0000    -0.0000    -0.0000    -0.0000    -0.0000    -0.0000    -0.0000    -0.0000    -0.0000 </r>
        <r>    -8.5183    -0.0000    -0.0000    -0.0000    -0.0000    -0.0004    -0.0004    -0.0000    -0.0004    -0.0000 </r>
        <r>    -8.3752    -0.0003     0.0000    -0.0000     0.0001     0.1742     0.1808    -0.0254     0.1695    -0.0876 </r>
        <r>    -8.2320     0.0237     0.0048     0.0076     0.0010     5.7578     4.4891     2.0499     6.6679     5.1926 </r>
        <r>    -8.0889     0.0413     0.0025     0.0027     0.0018     5.1972     1.5515     5.9076     3.4247     6.0912 </r>
        <r>    -7.9457     0.0102     0.0001     0.0001     0.0010     0.4721     0.3400     5.8437     0.4872     2.4105 </r>
        <r>    -7.8026    -0.0000    -0.0000    -0.0000    -0.0000    -0.0007    -0.0003    -0.0109    -0.0007    -0.0040 </r>
        <r>    -7.6594     0.0067     0.0007     0.0007     0.0000     0.0250     0.0274     0.0011     0.0250     0.0034 </r>
        <r>    -7.5163     0.0711     0.0072     0.0072     0.0001     0.2662     0.2915     0.0120     0.2662     0.0360 </r>
        <r>    -7.3731    -0.0059    -0.0002    -0.0002    -0.0017    -0.0111    -0.0368    -0.0006    -0.0111    -0.0019 </r>
        <r>    -7.2300     0.1758     0.0069     0.0069     0.0529     0.3357     1.0977     0.0173     0.3357     0.0519 </r>
        <r>    -7.0868     0.0354     0.0061     0.0061     0.0052     0.1489     0.1339    -0.0003     0.1489    -0.0010 </r>
        <r>    -6.9436    -0.0006    -0.0000    -0.0000    -0.0006    -0.0003    -0.0069    -0.0001    -0.0003    -0.0002 </r>
        <r>    -6.8005     0.0266    -0.0000    -0.0000     0.0327    -0.0000     0.3443     0.0026    -0.0000     0.0079 </r>
        <r>    -6.6573     0.0197     0.0070     0.0070     0.0074     0.0929     0.1468     0.0004     0.0929     0.0013 </r>
        <r>    -6.5142     0.0659     0.0223     0.0229     0.0255     0.3029     0.4984     0.0017     0.2904     0.0049 </r>
        <r>    -6.3710     0.0655     0.0282     0.0074     0.0855     0.0586     0.7910     0.0007     0.5449     0.0102 </r>
        <r>    -6.2279     0.0023     0.0050     0.0052     0.0680     0.0821     0.5165     0.0000     0.0762     0.0000 </r>
        <r>    -6.0847    -0.0001    -0.0001    -0.0001    -0.0016    -0.0019    -0.0121    -0.0000    -0.0019    -0.0000 </r>
        <r>    -5.9416    -0.0000    -0.0000    -0.0000    -0.0000    -0.0000    -0.0000    -0.0000    -0.0000    -0.0000 </r>
        <r>    -5.7984     0.0000     0.0000     0.0000     0.0000     0.0000     0.0000     0.0000     0.0000     0.0000 </r>
        <r>    -5.6553     0.0000     0.0000     0.0000     0.0000     0.0000     0.0000     0.0000     0.0000     0.0000 </r>
        <r>    -5.5121     0.0000     0.0000     0.0000     0.0000     0.0000     0.0000     0.0000     0.0000     0.0000 </r>
        <r>    -5.3690     0.0000     0.0000     0.0000     0.0000     0.0000     0.0000     0.0000     0.0000     0.0000 </r>
        <r>    -5.2258     0.0000     0.0000     0.0000     0.0000     0.0000     0.0000     0.0000     0.0000     0.0000 </r>
        <r>    -5.0827     0.0000     0.0000     0.0000     0.0000     0.0000     0.0000     0.0000     0.0000     0.0000 </r>
        <r>    -4.9395     0.0000     0.0000     0.0000     0.0000     0.0000     0.0000     0.0000     0.0000     0.0000 </r>
        <r>    -4.7963     0.0000     0.0000     0.0000     0.0000     0.0000     0.0000     0.0000     0.0000     0.0000 </r>
        <r>    -4.6532     0.0000     0.0000     0.0000     0.0000     0.0000     0.0000     0.0000     0.0000     0.0000 </r>
        <r>    -4.5100     0.0000     0.0000     0.0000     0.0000     0.0000     0.0000     0.0000     0.0000     0.0000 </r>
        <r>    -4.3669     0.0000     0.0000     0.0000     0.0000     0.0000     0.0000     0.0000     0.0000     0.0000 </r>
        <r>    -4.2237     0.0000     0.0000     0.0000     0.0000     0.0000     0.0000     0.0000     0.0000     0.0000 </r>
        <r>    -4.0806     0.0000     0.0000     0.0000     0.0000     0.0000     0.0000     0.0000     0.0000     0.0000 </r>
        <r>    -3.9374     0.0000     0.0000     0.0000     0.0000     0.0000     0.0000     0.0000     0.0000     0.0000 </r>
        <r>    -3.7943     0.0000     0.0000     0.0000     0.0000     0.0000     0.0000     0.0000     0.0000     0.0000 </r>
        <r>    -3.6511     0.0000     0.0000     0.0000     0.0000     0.0000     0.0000     0.0000     0.0000     0.0000 </r>
        <r>    -3.5080     0.0000     0.0000     0.0000     0.0000     0.0000     0.0000     0.0000     0.0000     0.0000 </r>
        <r>    -3.3648     0.0000     0.0000     0.0000     0.0000     0.0000     0.0000     0.0000     0.0000     0.0000 </r>
        <r>    -3.2217     0.0000     0.0000     0.0000     0.0000     0.0000     0.0000     0.0000     0.0000     0.0000 </r>
        <r>    -3.0785     0.0000     0.0000     0.0000     0.0000     0.0000     0.0000     0.0000     0.0000     0.0000 </r>
        <r>    -2.9354     0.0000     0.0000     0.0000     0.0000     0.0000     0.0000     0.0000     0.0000     0.0000 </r>
        <r>    -2.7922     0.0000     0.0000     0.0000     0.0000     0.0000     0.0000     0.0000     0.0000     0.0000 </r>
        <r>    -2.6490     0.0000     0.0000     0.0000     0.0000     0.0000     0.0000     0.0000     0.0000     0.0000 </r>
        <r>    -2.5059     0.0000     0.0000     0.0000     0.0000     0.0000     0.0000     0.0000     0.0000     0.0000 </r>
        <r>    -2.3627     0.0000     0.0000     0.0000     0.0000     0.0000     0.0000     0.0000     0.0000     0.0000 </r>
        <r>    -2.2196     0.0000     0.0000     0.0000     0.0000     0.0000     0.0000     0.0000     0.0000     0.0000 </r>
        <r>    -2.0764     0.0000     0.0000     0.0000     0.0000     0.0000     0.0000     0.0000     0.0000     0.0000 </r>
        <r>    -1.9333     0.0000     0.0000     0.0000     0.0000     0.0000     0.0000     0.0000     0.0000     0.0000 </r>
        <r>    -1.7901    -0.0000    -0.0000    -0.0000    -0.0000    -0.0000    -0.0000    -0.0000    -0.0000    -0.0000 </r>
        <r>    -1.6470    -0.0000    -0.0000    -0.0000    -0.0000    -0.0000    -0.0000    -0.0000    -0.0000    -0.0000 </r>
        <r>    -1.5038    -0.0000    -0.0000    -0.0000    -0.0000    -0.0000    -0.0000    -0.0000    -0.0000    -0.0000 </r>
        <r>    -1.3607    -0.0157    -0.0014    -0.0014    -0.0025    -0.0002    -0.0000    -0.0000    -0.0002    -0.0001 </r>
        <r>    -1.2175     0.8585     0.0820     0.0821     0.1360     0.0115     0.0040     0.0022     0.0115     0.0067 </r>
        <r>    -1.0744     0.0851     0.0148     0.0148     0.0130     0.0046     0.0048    -0.0001     0.0046    -0.0002 </r>
        <r>    -0.9312    -0.0012    -0.0000    -0.0000    -0.0000    -0.0000    -0.0000    -0.0000    -0.0000    -0.0001 </r>
        <r>    -0.7881     0.4870     0.0002     0.0002     0.0044     0.0003     0.0003     0.0074     0.0003     0.0223 </r>
        <r>    -0.6449     0.0756     0.0000     0.0000     0.0007     0.0000     0.0000     0.0012     0.0000     0.0035 </r>
        <r>    -0.5018     0.9579     0.0933     0.0025    -0.0001     0.0026     0.0348     0.0129     0.0031     0.0124 </r>
        <r>    -0.3586     0.2351    -0.0007    -0.0000     0.0070    -0.0000     0.0204     0.0065    -0.0000     0.0197 </r>
        <r>    -0.2154    -0.0074    -0.0000    -0.0000    -0.0002    -0.0000    -0.0007    -0.0002    -0.0000    -0.0006 </r>
        <r>    -0.0723     0.3637     0.0512     0.0512     0.0145     0.0103     0.0613     0.0029     0.0103     0.0087 </r>
        <r>     0.0709     0.2412     0.0339     0.0339     0.0096     0.0068     0.0407     0.0019     0.0068     0.0058 </r>
        <r>     0.2140    -0.0001    -0.0000    -0.0000    -0.0000    -0.0000    -0.0000    -0.0000    -0.0000    -0.0000 </r>
        <r>     0.3572    -0.0000    -0.0000    -0.0000    -0.0000    -0.0000    -0.0000    -0.0000    -0.0000    -0.0000 </r>
        <r>     0.5003    -0.0017    -0.0000    -0.0000    -0.0007    -0.0003    -0.0000    -0.0000    -0.0003    -0.0000 </r>
        <r>     0.6435     0.2474     0.0013     0.0013     0.0986     0.0450     0.0048     0.0005     0.0450     0.0015 </r>
        <r>     0.7866     0.0013     0.0000     0.0000     0.0005     0.0002     0.0000     0.0000     0.0002     0.0000 </r>
        <r>     0.9298    -0.0000    -0.0000    -0.0000    -0.0000    -0.0000    -0.0000    -0.0000    -0.0000    -0.0000 </r>
        <r>     1.0729    -0.0000    -0.0009    -0.0009    -0.0005    -0.0000    -0.0000    -0.0000    -0.0000    -0.0001 </r>
        <r>     1.2161     0.0026     0.1182     0.1182     0.0633     0.0036     0.0000     0.0063     0.0036     0.0188 </r>
        <r>     1.3592     0.0024     0.0028     0.0058     0.0023     0.0001     0.0000     0.0001     0.0005     0.0011 </r>
        <r>     1.5024     0.1061     0.1332     0.2650     0.1068     0.0068     0.0003     0.0047     0.0235     0.0502 </r>
        <r>     1.6455    -0.0006    -0.0008    -0.0015    -0.0006    -0.0000    -0.0000    -0.0000    -0.0001    -0.0003 </r>
        <r>     1.7887    -0.0000    -0.0000    -0.0000    -0.0000    -0.0000    -0.0000    -0.0000    -0.0000    -0.0000 </r>
        <r>     1.9319    -0.0000    -0.0000    -0.0000    -0.0000    -0.0000    -0.0000    -0.0000    -0.0000    -0.0000 </r>
        <r>     2.0750     0.0107     0.0069     0.0069     0.0096     0.0003     0.0025     0.0009     0.0003     0.0028 </r>
        <r>     2.2182     0.3117     0.1330     0.1330     0.1735     0.0406     0.0733     0.0138     0.0406     0.0414 </r>
        <r>     2.3613     0.0785    -0.0009    -0.0009     0.0100    -0.0004     0.0440     0.0012    -0.0003     0.0035 </r>
        <r>     2.5045     0.0469     0.1340     0.1564     0.1352     0.0382     0.0254     0.0067     0.0000     0.0399 </r>
        <r>     2.6476     0.0015     0.1640     0.1692     0.0298     0.0270     0.0000     0.0013     0.0180     0.0088 </r>
        <r>     2.7908     0.0655     0.2325     0.2325     0.0428     0.0166     0.0646     0.0101     0.0166     0.0113 </r>
        <r>     2.9339    -0.0051    -0.0098    -0.0098    -0.0047    -0.0012    -0.0032    -0.0006    -0.0012    -0.0011 </r>
        <r>     3.0771     0.1444     0.1136     0.1136     0.1616     0.0322     0.0547     0.0125     0.0322     0.0376 </r>
        <r>     3.2202    -0.0015    -0.0012    -0.0012    -0.0017    -0.0003    -0.0006    -0.0001    -0.0003    -0.0004 </r>
        <r>     3.3634    -0.0000    -0.0067    -0.0067    -0.0000    -0.0021    -0.0000    -0.0003    -0.0021    -0.0001 </r>
        <r>     3.5065     0.0000     0.2319     0.2319     0.0000     0.0708     0.0000     0.0112     0.0708     0.0037 </r>
        <r>     3.6497     0.0000     0.0670     0.0670     0.0000     0.0181     0.0000     0.0108     0.0181     0.0036 </r>
        <r>     3.7928     0.0000     0.1388     0.1388     0.0000     0.0378     0.0000     0.0217     0.0378     0.0072 </r>
        <r>     3.9360    -0.0000    -0.0024    -0.0024    -0.0000    -0.0015    -0.0000    -0.0000    -0.0015    -0.0000 </r>
        <r>     4.0792     0.0000     0.0879     0.0878    -0.0016     0.0571    -0.0008    -0.0003     0.0571    -0.0003 </r>
        <r>     4.2223     0.0000     0.0770     0.0770     0.0781     0.0390     0.0397     0.0126     0.0390     0.0126 </r>
        <r>     4.3655    -0.0000    -0.0048    -0.0048    -0.0026    -0.0028    -0.0013    -0.0009    -0.0028    -0.0006 </r>
        <r>     4.5086     0.0000     0.0734     0.0734    -0.0000     0.0499    -0.0000     0.0178     0.0499     0.0059 </r>
        <r>     4.6518    -0.0000     0.0136     0.0136     0.0146     0.0174     0.0181     0.0012     0.0174     0.0014 </r>
        <r>     4.7949     0.0000     0.0335     0.0335     0.0335     0.0416     0.0416     0.0034     0.0416     0.0034 </r>
        <r>     4.9381    -0.0000    -0.0001    -0.0001    -0.0001    -0.0003    -0.0003    -0.0000    -0.0003    -0.0000 </r>
        <r>     5.0812     0.0000     0.0053     0.0053     0.0053     0.0148     0.0148     0.0000     0.0148     0.0000 </r>
        <r>     5.2244    -0.0000    -0.0002    -0.0002    -0.0002    -0.0005    -0.0005    -0.0000    -0.0005    -0.0000 </r>
        <r>     5.3675    -0.0000    -0.0000    -0.0000    -0.0000    -0.0000    -0.0000    -0.0000    -0.0000    -0.0000 </r>
        <r>     5.5107     0.0000     0.0000     0.0000     0.0000     0.0000     0.0000     0.0000     0.0000     0.0000 </r>
        <r>     5.6538     0.0000     0.0000     0.0000     0.0000     0.0000     0.0000     0.0000     0.0000     0.0000 </r>
        <r>     5.7970     0.0000     0.0000     0.0000     0.0000     0.0000     0.0000     0.0000     0.0000     0.0000 </r>
        <r>     5.9401     0.0000     0.0000     0.0000     0.0000     0.0000     0.0000     0.0000     0.0000     0.0000 </r>
        <r>     6.0833    -0.0000    -0.0000    -0.0000    -0.0000    -0.0000    -0.0000    -0.0000    -0.0000    -0.0000 </r>
        <r>     6.2264    -0.0000    -0.0000    -0.0000    -0.0000    -0.0000    -0.0000    -0.0000    -0.0000    -0.0000 </r>
        <r>     6.3696    -0.0000    -0.0000    -0.0000    -0.0000    -0.0000    -0.0000    -0.0000    -0.0000    -0.0000 </r>
        <r>     6.5128    -0.0009    -0.0000    -0.0000    -0.0000    -0.0000    -0.0000    -0.0000    -0.0000    -0.0000 </r>
        <r>     6.6559     0.0321     0.0000     0.0000     0.0000     0.0000     0.0000     0.0000     0.0000     0.0000 </r>
        <r>     6.7991    -0.0004    -0.0000    -0.0000    -0.0000    -0.0000    -0.0000    -0.0000    -0.0000    -0.0000 </r>
        <r>     6.9422    -0.0000    -0.0000    -0.0000    -0.0000    -0.0000    -0.0000    -0.0000    -0.0000    -0.0000 </r>
        <r>     7.0854     0.0000     0.0000     0.0000     0.0000     0.0000     0.0000     0.0000     0.0000     0.0000 </r>
        <r>     7.2285     0.0000     0.0000     0.0000     0.0000     0.0000     0.0000     0.0000     0.0000     0.0000 </r>
        <r>     7.3717     0.0000     0.0000     0.0000     0.0000     0.0000     0.0000     0.0000     0.0000     0.0000 </r>
        <r>     7.5148     0.0000     0.0000     0.0000     0.0000     0.0000     0.0000     0.0000     0.0000     0.0000 </r>
        <r>     7.6580     0.0000     0.0000     0.0000     0.0000     0.0000     0.0000     0.0000     0.0000     0.0000 </r>
        <r>     7.8011     0.0000     0.0000     0.0000     0.0000     0.0000     0.0000     0.0000     0.0000     0.0000 </r>
        <r>     7.9443     0.0000     0.0000     0.0000     0.0000     0.0000     0.0000     0.0000     0.0000     0.0000 </r>
        <r>     8.0874    -0.0000    -0.0000    -0.0000    -0.0000    -0.0000    -0.0000    -0.0000    -0.0000    -0.0000 </r>
        <r>     8.2306    -0.0000    -0.0000    -0.0000    -0.0000    -0.0000    -0.0000    -0.0000    -0.0000    -0.0000 </r>
        <r>     8.3737    -0.0000    -0.0000    -0.0000    -0.0000    -0.0000    -0.0000    -0.0000    -0.0000    -0.0000 </r>
        <r>     8.5169     0.0779     0.0087     0.0087     0.0087     0.0002     0.0002    -0.0000     0.0002    -0.0000 </r>
        <r>     8.6601     0.0997     0.0111     0.0111     0.0115     0.0002     0.0004     0.0000     0.0002     0.0000 </r>
        <r>     8.8032     0.0000    -0.0000    -0.0000     0.1623    -0.0000     0.0675     0.0005    -0.0000     0.0014 </r>
        <r>     8.9464    -0.0000    -0.0000    -0.0000    -0.0012    -0.0000    -0.0005    -0.0000    -0.0000    -0.0000 </r>
        <r>     9.0895    -0.0014    -0.0000    -0.0000    -0.0011    -0.0000    -0.0000    -0.0000    -0.0000    -0.0001 </r>
        <r>     9.2327     0.0757    -0.0000    -0.0000     0.0604    -0.0000     0.0001     0.0014    -0.0000     0.0043 </r>
        <r>     9.3758    -0.0099    -0.0008    -0.0008    -0.0014    -0.0001    -0.0001    -0.0000    -0.0001    -0.0000 </r>
        <r>     9.5190     0.3238     0.0264     0.0263     0.0827     0.0060     0.0373     0.0008     0.0060     0.0025 </r>
        <r>     9.6621     0.0310    -0.0003    -0.0003     0.1922     0.0046     0.1115     0.0028     0.0046     0.0085 </r>
        <r>     9.8053    -0.0000    -0.0000    -0.0000    -0.0003    -0.0000    -0.0002    -0.0000    -0.0000    -0.0000 </r>
        <r>     9.9484    -0.0000    -0.0000    -0.0000    -0.0000    -0.0000    -0.0000    -0.0000    -0.0000    -0.0000 </r>
        <r>    10.0916    -0.0017    -0.0001    -0.0001    -0.0023    -0.0000    -0.0004    -0.0001    -0.0000    -0.0002 </r>
        <r>    10.2347     0.2738     0.0118     0.0118     0.3817     0.0071     0.0679     0.0084     0.0071     0.0253 </r>
        <r>    10.3779     0.2781     0.0173     0.0173     0.0887     0.0005     0.0027     0.0002     0.0005     0.0005 </r>
        <r>    10.5210    -0.0091    -0.0006    -0.0006    -0.0027    -0.0000    -0.0001    -0.0000    -0.0000    -0.0000 </r>
        <r>    10.6642    -0.0000    -0.0000    -0.0000    -0.0000    -0.0000    -0.0000    -0.0000    -0.0000    -0.0000 </r>
        <r>    10.8074    -0.0000    -0.0000    -0.0000    -0.0000    -0.0000    -0.0000    -0.0000    -0.0000    -0.0000 </r>
        <r>    10.9505    -0.0080    -0.0001    -0.0001    -0.0041    -0.0001    -0.0011    -0.0001    -0.0003    -0.0003 </r>
        <r>    11.0937     0.7657     0.0090     0.0057     0.6106     0.0103     0.2658     0.0086     0.0994     0.0329 </r>
        <r>    11.2368    -0.0149     0.0007    -0.0000     0.0473    -0.0002     0.0384    -0.0002     0.0177     0.0009 </r>
        <r>    11.3800    -0.0000    -0.0000    -0.0000    -0.0000    -0.0000    -0.0000    -0.0000    -0.0000    -0.0000 </r>
        <r>    11.5231    -0.0006    -0.0000    -0.0000    -0.0000    -0.0000    -0.0000    -0.0000    -0.0000    -0.0001 </r>
        <r>    11.6663     0.2555     0.0000     0.0000     0.0087     0.0000     0.0007     0.0122     0.0000     0.0365 </r>
        <r>    11.8094     0.0351     0.0000     0.0000     0.0012     0.0000     0.0001     0.0017     0.0000     0.0050 </r>
        <r>    11.9526    -0.0000    -0.0000    -0.0000    -0.0000    -0.0000    -0.0000    -0.0000    -0.0000    -0.0000 </r>
        <r>    12.0957    -0.0000    -0.0000    -0.0000    -0.0000    -0.0000    -0.0000    -0.0000    -0.0000    -0.0000 </r>
        <r>    12.2389     0.0046     0.0029     0.0029     0.0045     0.0017     0.0066     0.0003     0.0017     0.0009 </r>
        <r>    12.3820     0.0779     0.0651     0.0651     0.0974     0.0379     0.1480     0.0060     0.0379     0.0180 </r>
        <r>    12.5252     1.3298     0.0122     0.0122     0.2894     0.0289     0.1269     0.0185     0.0289     0.0554 </r>
        <r>    12.6683     0.0885     0.0086    -0.0003    -0.0067    -0.0006    -0.0018     0.0030     0.0023    -0.0006 </r>
        <r>    12.8115     1.0021     0.0712     0.0000     0.0762     0.0004     0.0146     0.0274     0.0236     0.0056 </r>
        <r>    12.9547     0.1156    -0.0002    -0.0000     0.1676    -0.0000     0.0128     0.0006    -0.0001     0.0021 </r>
        <r>    13.0978    -0.0002    -0.0001    -0.0001    -0.0002    -0.0000    -0.0001    -0.0000    -0.0000    -0.0000 </r>
        <r>    13.2410     0.1403     0.0733     0.0733     0.0414     0.0151     0.0481     0.0015     0.0151     0.0046 </r>
        <r>    13.3841     0.0705     0.0368     0.0368     0.0208     0.0076     0.0242     0.0008     0.0076     0.0023 </r>
        <r>    13.5273     0.0010     0.0007     0.0007     0.0007     0.0005     0.0005    -0.0000     0.0005    -0.0000 </r>
        <r>    13.6704     0.0345     0.0234     0.0234     0.0234     0.0155     0.0155     0.0000     0.0155     0.0000 </r>
        <r>    13.8136    -0.0035    -0.0027    -0.0027    -0.0027    -0.0003    -0.0003    -0.0000    -0.0003    -0.0000 </r>
        <r>    13.9567     0.1314     0.1008     0.1008     0.1008     0.0082     0.0082     0.0000     0.0082     0.0000 </r>
        <r>    14.0999    -0.0042    -0.0032    -0.0032    -0.0032    -0.0003    -0.0003    -0.0000    -0.0003    -0.0000 </r>
        <r>    14.2430    -0.0000    -0.0000    -0.0000    -0.0000    -0.0000    -0.0000    -0.0000    -0.0000    -0.0000 </r>
        <r>    14.3862     0.0226     0.0059     0.0059     0.1371     0.0008     0.0016     0.0045     0.0008     0.0134 </r>
        <r>    14.5293     0.0301    -0.0054     0.0076     0.1823     0.0004     0.0022     0.0061     0.0001     0.0154 </r>
        <r>    14.6725     0.0362     0.5073     0.0214     0.2164     0.0284     0.0029     0.0002     0.0381     0.1078 </r>
        <r>    14.8156    -0.0005    -0.0064    -0.0003    -0.0027    -0.0004    -0.0000    -0.0000    -0.0005    -0.0014 </r>
        <r>    14.9588     0.0035     0.0219     0.0219     0.0095     0.0023     0.0037     0.0032     0.0023     0.0095 </r>
        <r>    15.1019     0.2545     0.3182     0.3182     0.3420     0.0591     0.0379     0.0469     0.0591     0.1407 </r>
        <r>    15.2451     0.0173     0.0878     0.0878     0.1000     0.0033     0.0005     0.0008     0.0034     0.0030 </r>
        <r>    15.3883    -0.0000     0.2900     0.2900     0.2900     0.0268     0.0269     0.0520     0.0268     0.0520 </r>
        <r>    15.5314     0.0000     0.0122     0.0122     0.0122     0.0005     0.0005     0.0008     0.0005     0.0008 </r>
        <r>    15.6746     0.0000     0.3857     0.3857     0.3857     0.0108     0.0108     0.0101     0.0108     0.0101 </r>
        <r>    15.8177    -0.0000    -0.0021    -0.0021    -0.0021    -0.0001    -0.0001    -0.0001    -0.0001    -0.0001 </r>
        <r>    15.9609    -0.0000    -0.0141    -0.0141    -0.0000    -0.0013    -0.0000    -0.0001    -0.0013    -0.0000 </r>
        <r>    16.1040    -0.0005     0.4404     0.4404    -0.0001     0.0403    -0.0000     0.0016     0.0403     0.0001 </r>
        <r>    16.2472     0.0527     0.0638     0.0638     0.0133     0.0310     0.0082     0.0238     0.0310     0.0548 </r>
        <r>    16.3903     0.0136     0.9150     0.9150    -0.0002     0.0981     0.0115     0.0605     0.0981     0.0408 </r>
        <r>    16.5335    -0.0000    -0.0043    -0.0043    -0.0000    -0.0003    -0.0000    -0.0002    -0.0003    -0.0001 </r>
        <r>    16.6766     0.0000     0.2213     0.2213     0.0000     0.0210     0.0000     0.0183     0.0210     0.0061 </r>
        <r>    16.8198     0.0000     0.3946     0.3946    -0.0000     0.0374    -0.0000     0.0327     0.0374     0.0109 </r>
        <r>    16.9629     0.0003     0.0036     0.0035     0.0046     0.0024     0.0006     0.0003     0.0015     0.0015 </r>
        <r>    17.1061     0.0128     0.1591     0.1519     0.1873     0.0986     0.0232     0.0117     0.0630     0.0615 </r>
        <r>    17.2492    -0.0001    -0.0009    -0.0008    -0.0010    -0.0005    -0.0001    -0.0001    -0.0003    -0.0003 </r>
        <r>    17.3924     0.0000     0.0000     0.0000     0.0001     0.0000     0.0014     0.0005     0.0000     0.0014 </r>
        <r>    17.5356     0.0001     0.0000     0.0000     0.0057     0.0000     0.0661     0.0214     0.0000     0.0642 </r>
        <r>    17.6787    -0.0000    -0.0000    -0.0000    -0.0000    -0.0000    -0.0004    -0.0001    -0.0000    -0.0004 </r>
        <r>    17.8219    -0.0000    -0.0000    -0.0000    -0.0000    -0.0000    -0.0000    -0.0000    -0.0000    -0.0000 </r>
        <r>    17.9650     0.0000     0.1263     0.1263    -0.0000     0.0219     0.0000     0.0005     0.0219     0.0002 </r>
        <r>    18.1082    -0.0000     0.1305     0.1305    -0.0028     0.0235    -0.0000     0.0001     0.0235    -0.0014 </r>
        <r>    18.2513     0.0017     0.2474     0.2474     0.0973     0.0157     0.0000     0.0181     0.0157     0.0543 </r>
        <r>    18.3945    -0.0000     0.2816     0.2816    -0.0028     0.0347    -0.0000    -0.0005     0.0347    -0.0016 </r>
        <r>    18.5376    -0.0000    -0.0028    -0.0028    -0.0000    -0.0003    -0.0000    -0.0000    -0.0003    -0.0000 </r>
        <r>    18.6808    -0.0000    -0.0000    -0.0000    -0.0000    -0.0000    -0.0000    -0.0000    -0.0000    -0.0000 </r>
        <r>    18.8239    -0.0000    -0.0000    -0.0000    -0.0000    -0.0000    -0.0000    -0.0000    -0.0000    -0.0000 </r>
        <r>    18.9671     0.0000     0.0053     0.0053     0.0022     0.0004     0.0015     0.0009     0.0004     0.0027 </r>
        <r>    19.1102     0.0015     0.3210     0.3210     0.1343     0.0221     0.0917     0.0539     0.0221     0.1617 </r>
        <r>    19.2534    -0.0000    -0.0019    -0.0019    -0.0008    -0.0001    -0.0006    -0.0003    -0.0001    -0.0010 </r>
        <r>    19.3965    -0.0000    -0.0000    -0.0000    -0.0000    -0.0000    -0.0000    -0.0000    -0.0000    -0.0000 </r>
        <r>    19.5397    -0.0000    -0.0001    -0.0014    -0.0000    -0.0000    -0.0000    -0.0000    -0.0000    -0.0002 </r>
        <r>    19.6829     0.0002     0.0995     1.0301     0.0004     0.0267     0.0053     0.0274     0.0026     0.1237 </r>
        <r>    19.8260     0.0001     0.0287     0.2966     0.0001     0.0077     0.0015     0.0079     0.0007     0.0356 </r>
        <r>    19.9692    -0.0000    -0.0000    -0.0000    -0.0000    -0.0000    -0.0000    -0.0000    -0.0000    -0.0000 </r>
        <r>    20.1123    -0.0000    -0.0000    -0.0000    -0.0000    -0.0000    -0.0000    -0.0000    -0.0000    -0.0000 </r>
        <r>    20.2555    -0.0001    -0.0013    -0.0013    -0.0000    -0.0012    -0.0000    -0.0065    -0.0012    -0.0022 </r>
        <r>    20.3986     0.1048     0.0508     0.0508     0.0021     0.0600     0.0132     0.2451     0.0600     0.0817 </r>
        <r>    20.5418     0.0414    -0.0007    -0.0007     0.0008     0.0038     0.0052    -0.0076     0.0038    -0.0025 </r>
        <r>    20.6849    -0.0000    -0.0000    -0.0000    -0.0000    -0.0000    -0.0000    -0.0000    -0.0000    -0.0000 </r>
        <r>    20.8281    -0.0001    -0.0011    -0.0011    -0.0015    -0.0000    -0.0001    -0.0002    -0.0000    -0.0006 </r>
        <r>    20.9712     0.0236     0.2756     0.2756     0.3694     0.0087     0.0273     0.0515     0.0087     0.1546 </r>
        <r>    21.1144     0.0014     0.0165     0.0165     0.0221     0.0005     0.0016     0.0031     0.0005     0.0092 </r>
        <r>    21.2575     0.0372     0.0037     0.0037     0.0037     0.0133     0.0132    -0.0000     0.0133    -0.0000 </r>
        <r>    21.4007     0.0509     0.0050     0.0050     0.0050     0.0181     0.0181    -0.0000     0.0181    -0.0000 </r>
        <r>    21.5438    -0.0000    -0.0004    -0.0004    -0.0004    -0.0009    -0.0009    -0.0030    -0.0009    -0.0030 </r>
        <r>    21.6870     0.0000     0.0267     0.0267     0.0267     0.0611     0.0611     0.1931     0.0611     0.1931 </r>
        <r>    21.8301    -0.0000    -0.0008    -0.0008    -0.0008    -0.0019    -0.0019    -0.0060    -0.0019    -0.0060 </r>
        <r>    21.9733    -0.0000    -0.0000    -0.0000    -0.0000    -0.0000    -0.0000    -0.0000    -0.0000    -0.0000 </r>
        <r>    22.1165     0.0012     0.0131     0.0131     0.1177     0.0145     0.0013     0.0053     0.0145     0.0159 </r>
        <r>    22.2596     0.0223     0.0282     0.0282     0.2524     0.0312     0.0028     0.0114     0.0312     0.0341 </r>
        <r>    22.4028     0.0284    -0.0000    -0.0000    -0.0002    -0.0000    -0.0000    -0.0000    -0.0000    -0.0000 </r>
        <r>    22.5459    -0.0000    -0.0000    -0.0000    -0.0000    -0.0000    -0.0000    -0.0000    -0.0000    -0.0000 </r>
        <r>    22.6891     0.0000     0.0000     0.0000     0.0000     0.0000     0.0000     0.0000     0.0000     0.0000 </r>
        <r>    22.8322     0.0000     0.0000     0.0000     0.0000     0.0000     0.0000     0.0000     0.0000     0.0000 </r>
        <r>    22.9754    -0.0000    -0.0000    -0.0000    -0.0000    -0.0000    -0.0000    -0.0000    -0.0000    -0.0000 </r>
        <r>    23.1185    -0.0000    -0.0000    -0.0000    -0.0000    -0.0000    -0.0000    -0.0000    -0.0000    -0.0000 </r>
        <r>    23.2617    -0.0000    -0.0000    -0.0000    -0.0000    -0.0000    -0.0000    -0.0000    -0.0000    -0.0000 </r>
        <r>    23.4048     0.0000     0.1019     0.1019     0.0201     0.0173     0.0044     0.1588     0.0173     0.0717 </r>
        <r>    23.5480     0.0000     0.3039     0.3040     0.0978     0.0538     0.0214     0.4663     0.0538     0.2467 </r>
        <r>    23.6911     0.0000     0.0026     0.0004     0.0028     0.0036     0.0139    -0.0006     0.0137    -0.0004 </r>
        <r>    23.8343     0.0000     0.0009     0.0002     0.0010     0.0011     0.0044     0.0000     0.0040     0.0000 </r>
        <r>    23.9774    -0.0000    -0.0000    -0.0000    -0.0000    -0.0000    -0.0000    -0.0000    -0.0000    -0.0000 </r>
        <r>    24.1206    -0.0002    -0.0002    -0.0005    -0.0004    -0.0000    -0.0002    -0.0029    -0.0000    -0.0001 </r>
        <r>    24.2638     0.0455     0.0411     0.0954     0.0822     0.0003     0.0454     0.5615     0.0001     0.0255 </r>
        <r>    24.4069     0.0014     0.0013     0.0030     0.0026     0.0000     0.0014     0.0177     0.0000     0.0008 </r>
        <r>    24.5501    -0.0000    -0.0000    -0.0000    -0.0000    -0.0000    -0.0000    -0.0000    -0.0000    -0.0000 </r>
        <r>    24.6932    -0.0000    -0.0000    -0.0000    -0.0000    -0.0000    -0.0000    -0.0000    -0.0000    -0.0000 </r>
        <r>    24.8364    -0.0000    -0.0000    -0.0000    -0.0000    -0.0000    -0.0000    -0.0000    -0.0000    -0.0000 </r>
        <r>    24.9795     0.0424     0.0172     0.0172     0.0125     0.0132     0.0075     0.0088     0.0132     0.0264 </r>
        <r>    25.1227     0.4182     0.1552     0.1552     0.2435     0.1617     0.0631     0.0840     0.1617     0.2519 </r>
        <r>    25.2658     0.1101     0.0485     0.0485    -0.0005    -0.0004     0.0729    -0.0002    -0.0004    -0.0007 </r>
        <r>    25.4090     0.0709     0.0311     0.0311     0.0004     0.0002     0.0465     0.0000     0.0002     0.0001 </r>
        <r>    25.5521    -0.0000    -0.0032    -0.0032    -0.0000    -0.0007    -0.0000    -0.0114    -0.0007    -0.0038 </r>
        <r>    25.6953     0.0000     0.2075     0.2076     0.0000     0.0425     0.0000     0.7381     0.0425     0.2461 </r>
        <r>    25.8384    -0.0000    -0.0065    -0.0065    -0.0000    -0.0013    -0.0000    -0.0232    -0.0013    -0.0077 </r>
        <r>    25.9816    -0.0000    -0.0000    -0.0000    -0.0000    -0.0000    -0.0000    -0.0000    -0.0000    -0.0000 </r>
        <r>    26.1247    -0.0003    -0.0000    -0.0000    -0.0004    -0.0001    -0.0000    -0.0000    -0.0000    -0.0000 </r>
        <r>    26.2679     0.1153     0.0032     0.0076     0.1518     0.0172     0.0111     0.0001     0.0095     0.0022 </r>
        <r>    26.4111     0.0126     0.1429     0.1434     0.0166     0.0254     0.0012     0.2277     0.0246     0.0761 </r>
        <r>    26.5542    -0.0000     0.0134     0.0134    -0.0001     0.0022    -0.0000     0.0215     0.0022     0.0071 </r>
        <r>    26.6974     0.0027    -0.0000    -0.0000     0.1397    -0.0000     0.0478     0.0016    -0.0000     0.0049 </r>
        <r>    26.8405     0.0016     0.0000     0.0000     0.0817     0.0000     0.0280     0.0010     0.0000     0.0029 </r>
        <r>    26.9837    -0.0000    -0.0000    -0.0000    -0.0000    -0.0000    -0.0000    -0.0000    -0.0000    -0.0000 </r>
        <r>    27.1268    -0.0000    -0.0000    -0.0000    -0.0000    -0.0000    -0.0000    -0.0000    -0.0000    -0.0000 </r>
        <r>    27.2700    -0.0001    -0.0013    -0.0013    -0.0058    -0.0001    -0.0026    -0.0000    -0.0001    -0.0000 </r>
        <r>    27.4131     0.0066     0.0889     0.0887     0.3947     0.0048     0.1755     0.0003     0.0049     0.0008 </r>
        <r>    27.5563    -0.0001    -0.0009    -0.0008    -0.0037    -0.0000    -0.0017    -0.0000    -0.0001    -0.0000 </r>
        <r>    27.6994     0.0140     0.1395     0.0060     0.2234     0.0058     0.0636     0.0000     0.0302     0.0053 </r>
        <r>    27.8426     0.0324     0.3231     0.0140     0.5175     0.0134     0.1474     0.0000     0.0698     0.0122 </r>
        <r>    27.9857    -0.0000    -0.0003    -0.0000    -0.0005    -0.0000    -0.0001    -0.0000    -0.0001    -0.0000 </r>
        <r>    28.1289    -0.0000    -0.0000    -0.0000    -0.0000    -0.0000    -0.0000    -0.0000    -0.0000    -0.0000 </r>
        <r>    28.2720    -0.0000    -0.0000    -0.0000    -0.0000    -0.0000    -0.0000    -0.0031    -0.0000    -0.0010 </r>
        <r>    28.4152     0.0000     0.0000     0.0000     0.0000     0.0000     0.0000     0.1107     0.0000     0.0369 </r>
        <r>    28.5583    -0.0000    -0.0000    -0.0000    -0.0000    -0.0000    -0.0000    -0.0014    -0.0000    -0.0005 </r>
        <r>    28.7015    -0.0000    -0.0000    -0.0000    -0.0000    -0.0000    -0.0000    -0.0000    -0.0000    -0.0000 </r>
        <r>    28.8447     0.0000     0.0000     0.0000     0.0000     0.0000     0.0000     0.0000     0.0000     0.0000 </r>
[...]
       </set>
       <set comment="band 12">
        <r>  0.0175  0.0914  0.0914  0.0426  0.0100  0.0151  0.0132  0.0100  0.0396 </r>
        <r>  0.0274  0.0263  0.0263  0.0707  0.0000  0.0000  0.0000  0.0000  0.0000 </r>
       </set>
       <set comment="band 13">
        <r>  0.0000  0.2295  0.2295  0.0000  0.0217  0.0000  0.0190  0.0218  0.0063 </r>
        <r>  0.0000  0.0763  0.0763  0.0000  0.0000  0.0000  0.0000  0.0000  0.0000 </r>
       </set>
       <set comment="band 14">
        <r>  0.0006  0.1209  0.1209  0.0506  0.0083  0.0345  0.0203  0.0083  0.0609 </r>
        <r>  0.0044  0.0245  0.0245  0.0875  0.0000  0.0000  0.0000  0.0000  0.0000 </r>
       </set>
       <set comment="band 15">
        <r>  0.0754  0.0232  0.0232  0.0833  0.0395  0.0078  0.0142  0.0395  0.0426 </r>
        <r>  0.0099  0.0105  0.0105  0.0003  0.0000  0.0000  0.0000  0.0000  0.0000 </r>
       </set>
       <set comment="band 16">
        <r>  0.0000  0.0737  0.0738  0.0000  0.0151  0.0000  0.1809  0.0151  0.0603 </r>
        <r>  0.0000  0.0322  0.0322  0.0000  0.0000  0.0000  0.0000  0.0000  0.0000 </r>
       </set>
      </set>
      <set comment="kpoint 6">
       <set comment="band 1">
        <r>  0.0226  0.0083  0.0083  0.0141  0.1213  0.2222  0.0000  0.1213  0.0001 </r>
        <r>  0.3371  0.0000  0.0000  0.0000  0.0000  0.0000  0.0000  0.0000  0.0000 </r>
       </set>
       <set comment="band 2">
        <r>  0.0004  0.0002  0.0002  0.0000  0.1490  0.3635  0.0776  0.1490  0.2328 </r>
        <r>  0.0002  0.0012  0.0012  0.0071  0.0000  0.0000  0.0000  0.0000  0.0000 </r>
       </set>
       <set comment="band 3">
        <r>  0.0000  0.0003  0.0003  0.0000  0.3788  0.0000  0.1647  0.3788  0.0549 </r>
        <r>  0.0000  0.0050  0.0050  0.0000  0.0000  0.0000  0.0000  0.0000  0.0000 </r>
       </set>
       <set comment="band 4">
        <r>  0.0001  0.0002  0.0002  0.0001  0.0812  0.1574  0.1669  0.0812  0.5008 </r>
        <r>  0.0002  0.0000  0.0000  0.0002  0.0000  0.0000  0.0000  0.0000  0.0000 </r>
       </set>
       <set comment="band 5">
        <r>  0.0000  0.0000  0.0000  0.0000  0.1119  0.0000  0.5762  0.1119  0.1920 </r>
        <r>  0.0000  0.0002  0.0002  0.0000  0.0000  0.0000  0.0000  0.0000  0.0000 </r>
       </set>
       <set comment="band 6">
        <r>  0.0328  0.0112  0.0112  0.0135  0.1480  0.2523  0.0008  0.1480  0.0025 </r>
        <r>  0.2577  0.0013  0.0013  0.0005  0.0000  0.0000  0.0000  0.0000  0.0000 </r>
       </set>
       <set comment="band 7">
        <r>  0.2723  0.0242  0.0242  0.0433  0.0027  0.0001  0.0008  0.0027  0.0024 </r>
        <r>  0.0100  0.0882  0.0882  0.0826  0.0000  0.0000  0.0000  0.0000  0.0000 </r>
       </set>
       <set comment="band 8">
        <r>  0.0774  0.0437  0.0437  0.0598  0.0053  0.0183  0.0055  0.0053  0.0164 </r>
        <r>  0.0169  0.0590  0.0590  0.2672  0.0000  0.0000  0.0000  0.0000  0.0000 </r>
       </set>
       <set comment="band 9">
        <r>  0.0000  0.0779  0.0779  0.0000  0.0212  0.0000  0.0122  0.0212  0.0041 </r>
        <r>  0.0000  0.2565  0.2565  0.0000  0.0000  0.0000  0.0000  0.0000  0.0000 </r>
       </set>
       <set comment="band 10">
        <r>  0.2760  0.0019  0.0019  0.1235  0.0037  0.0246  0.0031  0.0037  0.0093 </r>
        <r>  0.1020  0.0075  0.0075  0.0964  0.0000  0.0000  0.0000  0.0000  0.0000 </r>
       </set>
       <set comment="band 11">
        <r>  0.0406  0.0253  0.0253  0.0390  0.0149  0.0580  0.0025  0.0149  0.0076 </r>
        <r>  0.0080  0.1460  0.1460  0.0012  0.0000  0.0000  0.0000  0.0000  0.0000 </r>
       </set>
       <set comment="band 12">
        <r>  0.0852  0.0387  0.0387  0.0962  0.0139  0.0004  0.0059  0.0139  0.0176 </r>
        <r>  0.0167  0.0320  0.0320  0.2315  0.0000  0.0000  0.0000  0.0000  0.0000 </r>
       </set>
       <set comment="band 13">
        <r>  0.0000  0.2209  0.2209  0.0000  0.0345  0.0000  0.0220  0.0345  0.0073 </r>
        <r>  0.0000  0.0520  0.0520  0.0000  0.0000  0.0000  0.0000  0.0000  0.0000 </r>
       </set>
       <set comment="band 14">
        <r>  0.0093  0.1085  0.1085  0.1454  0.0034  0.0108  0.0203  0.0034  0.0608 </r>
        <r>  0.0348  0.0164  0.0164  0.0261  0.0000  0.0000  0.0000  0.0000  0.0000 </r>
       </set>
       <set comment="band 15">
        <r>  0.0000  0.1072  0.1073  0.0000  0.0169  0.0000  0.1714  0.0168  0.0571 </r>
        <r>  0.0000  0.0220  0.0220  0.0000  0.0000  0.0000  0.0000  0.0000  0.0000 </r>
       </set>
       <set comment="band 16">
        <r>  0.0957  0.0409  0.0409  0.0118  0.0255  0.0184  0.0203  0.0255  0.0608 </r>
        <r>  0.0174  0.0071  0.0071  0.0000  0.0000  0.0000  0.0000  0.0000  0.0000 </r>
       </set>
      </set>
      <set comment="kpoint 7">
       <set comment="band 1">
        <r>  0.0816  0.0114  0.0114  0.0046  0.1041  0.0719  0.0001  0.1041  0.0002 </r>
        <r>  0.4009  0.0001  0.0001  0.0000  0.0000  0.0000  0.0000  0.0000  0.0000 </r>
       </set>
       <set comment="band 2">
        <r>  0.0007  0.0002  0.0002  0.0000  0.1126  0.6320  0.0288  0.1126  0.0863 </r>
        <r>  0.0000  0.0001  0.0001  0.0105  0.0000  0.0000  0.0000  0.0000  0.0000 </r>
       </set>
       <set comment="band 3">
        <r>  0.0000  0.0002  0.0002  0.0000  0.4543  0.0000  0.0487  0.4543  0.0162 </r>
        <r>  0.0000  0.0065  0.0065  0.0000  0.0000  0.0000  0.0000  0.0000  0.0000 </r>
       </set>
       <set comment="band 4">
        <r>  0.0000  0.0000  0.0000  0.0000  0.0335  0.0000  0.6917  0.0335  0.2306 </r>
        <r>  0.0000  0.0000  0.0000  0.0000  0.0000  0.0000  0.0000  0.0000  0.0000 </r>
       </set>
       <set comment="band 5">
        <r>  0.0031  0.0002  0.0002  0.0000  0.0522  0.0381  0.2085  0.0522  0.6254 </r>
        <r>  0.0025  0.0010  0.0010  0.0001  0.0000  0.0000  0.0000  0.0000  0.0000 </r>
       </set>
       <set comment="band 6">
        <r>  0.0578  0.0059  0.0059  0.0001  0.2164  0.2371  0.0098  0.2164  0.0293 </r>
        <r>  0.1087  0.0072  0.0072  0.0000  0.0000  0.0000  0.0000  0.0000  0.0000 </r>
       </set>
       <set comment="band 7">
        <r>  0.1842  0.0010  0.0010  0.0734  0.0335  0.0036  0.0004  0.0335  0.0011 </r>
        <r>  0.0982  0.1321  0.1321  0.0096  0.0000  0.0000  0.0000  0.0000  0.0000 </r>
       </set>
       <set comment="band 8">
        <r>  0.0461  0.0641  0.0641  0.0301  0.0006  0.0455  0.0021  0.0006  0.0063 </r>
        <r>  0.0007  0.0069  0.0069  0.4114  0.0000  0.0000  0.0000  0.0000  0.0000 </r>
       </set>
       <set comment="band 9">
        <r>  0.0000  0.0523  0.0523  0.0000  0.0356  0.0000  0.0127  0.0356  0.0042 </r>
        <r>  0.0000  0.2814  0.2814  0.0000  0.0000  0.0000  0.0000  0.0000  0.0000 </r>
       </set>
       <set comment="band 10">
        <r>  0.1925  0.0120  0.0120  0.0580  0.0003  0.0011  0.0000  0.0003  0.0001 </r>
        <r>  0.1533  0.1237  0.1237  0.0101  0.0000  0.0000  0.0000  0.0000  0.0000 </r>
       </set>
       <set comment="band 11">
        <r>  0.1571  0.0821  0.0821  0.0464  0.0169  0.0539  0.0017  0.0169  0.0051 </r>
        <r>  0.0005  0.0201  0.0201  0.1347  0.0000  0.0000  0.0000  0.0000  0.0000 </r>
       </set>
       <set comment="band 12">
        <r>  0.0400  0.0105  0.0105  0.2424  0.0015  0.0029  0.0079  0.0015  0.0236 </r>
        <r>  0.0153  0.0263  0.0263  0.0836  0.0000  0.0000  0.0000  0.0000  0.0000 </r>
       </set>
       <set comment="band 13">
        <r>  0.0000  0.3098  0.3098  0.0000  0.0285  0.0000  0.0012  0.0285  0.0004 </r>
        <r>  0.0000  0.0228  0.0228  0.0000  0.0000  0.0000  0.0000  0.0000  0.0000 </r>
       </set>
       <set comment="band 14">
        <r>  0.0000  0.0342  0.0342  0.0000  0.0329  0.0000  0.1723  0.0329  0.0574 </r>
        <r>  0.0000  0.0005  0.0005  0.0000  0.0000  0.0000  0.0000  0.0000  0.0000 </r>
       </set>
       <set comment="band 15">
        <r>  0.0028  0.0308  0.0308  0.2758  0.0341  0.0030  0.0124  0.0341  0.0372 </r>
        <r>  0.0001  0.0513  0.0513  0.0006  0.0000  0.0000  0.0000  0.0000  0.0000 </r>
       </set>
       <set comment="band 16">
        <r>  0.1360  0.0597  0.0597  0.0007  0.0003  0.0892  0.0001  0.0003  0.0003 </r>
        <r>  0.0025  0.0039  0.0039  0.0404  0.0000  0.0000  0.0000  0.0000  0.0000 </r>
       </set>
      </set>
      <set comment="kpoint 8">
       <set comment="band 1">
        <r>  0.0135  0.0000  0.0000  0.0312  0.0000  0.4939  0.0003  0.0000  0.0009 </r>
        <r>  0.3255  0.0000  0.0000  0.0000  0.0000  0.0000  0.0000  0.0000  0.0000 </r>
       </set>
       <set comment="band 2">
        <r>  0.0036  0.0000  0.0000  0.0001  0.0000  0.0089  0.2381  0.0000  0.7142 </r>
        <r>  0.0004  0.0000  0.0000  0.0073  0.0000  0.0000  0.0000  0.0000  0.0000 </r>
       </set>
       <set comment="band 3">
        <r>  0.0000  0.0000  0.0005  0.0000  0.4924  0.0000  0.0000  0.4932  0.0000 </r>
        <r>  0.0000  0.0065  0.0005  0.0000  0.0000  0.0000  0.0000  0.0000  0.0000 </r>
       </set>
       <set comment="band 4">
        <r>  0.0000  0.0005  0.0000  0.0000  0.4932  0.0000  0.0000  0.4924  0.0000 </r>
        <r>  0.0000  0.0005  0.0065  0.0000  0.0000  0.0000  0.0000  0.0000  0.0000 </r>
       </set>
       <set comment="band 5">
        <r>  0.0000  0.0000  0.0000  0.0000  0.0000  0.0000  0.7457  0.0000  0.2486 </r>
        <r>  0.0000  0.0000  0.0000  0.0000  0.0000  0.0000  0.0000  0.0000  0.0000 </r>
       </set>
       <set comment="band 6">
        <r>  0.0376  0.0000  0.0000  0.0462  0.0000  0.4864  0.0037  0.0000  0.0111 </r>
        <r>  0.2568  0.0000  0.0000  0.0071  0.0000  0.0000  0.0000  0.0000  0.0000 </r>
       </set>
       <set comment="band 7">
        <r>  0.3404  0.0000  0.0000  0.0098  0.0000  0.0291  0.0093  0.0000  0.0279 </r>
        <r>  0.0459  0.0000  0.0000  0.2673  0.0000  0.0000  0.0000  0.0000  0.0000 </r>
       </set>
       <set comment="band 8">
        <r>  0.0000  0.0171  0.1861  0.0000  0.0139  0.0000  0.0000  0.0131  0.0000 </r>
        <r>  0.0000  0.4332  0.0251  0.0000  0.0000  0.0000  0.0000  0.0000  0.0000 </r>
       </set>
       <set comment="band 9">
        <r>  0.0000  0.1862  0.0171  0.0000  0.0132  0.0000  0.0000  0.0139  0.0000 </r>
        <r>  0.0000  0.0251  0.4330  0.0000  0.0000  0.0000  0.0000  0.0000  0.0000 </r>
       </set>
       <set comment="band 10">
        <r>  0.0001  0.0000  0.0000  0.2409  0.0000  0.1002  0.0007  0.0000  0.0021 </r>
        <r>  0.0779  0.0000  0.0000  0.0195  0.0000  0.0000  0.0000  0.0000  0.0000 </r>
       </set>
       <set comment="band 11">
        <r>  0.4324  0.0000  0.0000  0.0148  0.0000  0.0012  0.0206  0.0000  0.0618 </r>
        <r>  0.0029  0.0000  0.0000  0.1417  0.0000  0.0000  0.0000  0.0000  0.0000 </r>
       </set>
       <set comment="band 12">
        <r>  0.0302  0.0000  0.0000  0.0000  0.0000  0.0242  0.0167  0.0000  0.0500 </r>
        <r>  0.0143  0.0000  0.0000  0.3184  0.0000  0.0000  0.0000  0.0000  0.0000 </r>
       </set>
       <set comment="band 13">
        <r>  0.0000  0.2041  0.2157  0.0000  0.0259  0.0000  0.0000  0.0251  0.0000 </r>
        <r>  0.0000  0.1433  0.1365  0.0000  0.0000  0.0000  0.0000  0.0000  0.0000 </r>
       </set>
       <set comment="band 14">
        <r>  0.0000  0.2157  0.2042  0.0000  0.0251  0.0000  0.0000  0.0259  0.0000 </r>
        <r>  0.0000  0.1365  0.1433  0.0000  0.0000  0.0000  0.0000  0.0000  0.0000 </r>
       </set>
       <set comment="band 15">
        <r>  0.0063  0.0000  0.0000  0.3299  0.0000  0.1129  0.0039  0.0000  0.0117 </r>
        <r>  0.1296  0.0000  0.0000  0.0297  0.0000  0.0000  0.0000  0.0000  0.0000 </r>
       </set>
       <set comment="band 16">
        <r>  0.0000  0.0000  0.0000  0.0000  0.0000  0.0000  0.1584  0.0000  0.0528 </r>
        <r>  0.0000  0.0000  0.0000  0.0000  0.0000  0.0000  0.0000  0.0000  0.0000 </r>
       </set>
      </set>
      <set comment="kpoint 9">
       <set comment="band 1">
        <r>  0.0013  0.0030  0.0030  0.0260  0.0436  0.4480  0.0000  0.0436  0.0000 </r>
        <r>  0.3102  0.0000  0.0000  0.0000  0.0000  0.0000  0.0000  0.0000  0.0000 </r>
       </set>
       <set comment="band 2">
        <r>  0.0015  0.0004  0.0004  0.0000  0.0553  0.0286  0.2065  0.0553  0.6195 </r>
        <r>  0.0004  0.0007  0.0007  0.0067  0.0000  0.0000  0.0000  0.0000  0.0000 </r>
       </set>
       <set comment="band 3">
        <r>  0.0001  0.0000  0.0000  0.0002  0.3413  0.1617  0.0354  0.3413  0.1061 </r>
        <r>  0.0007  0.0012  0.0012  0.0000  0.0000  0.0000  0.0000  0.0000  0.0000 </r>
       </set>
       <set comment="band 4">
        <r>  0.0000  0.0003  0.0003  0.0000  0.4594  0.0000  0.0500  0.4594  0.0167 </r>
        <r>  0.0000  0.0036  0.0036  0.0000  0.0000  0.0000  0.0000  0.0000  0.0000 </r>
       </set>
       <set comment="band 5">
        <r>  0.0000  0.0000  0.0000  0.0000  0.0340  0.0000  0.6938  0.0340  0.2313 </r>
        <r>  0.0000  0.0000  0.0000  0.0000  0.0000  0.0000  0.0000  0.0000  0.0000 </r>
       </set>
       <set comment="band 6">
        <r>  0.0022  0.0037  0.0037  0.0487  0.0583  0.3705  0.0000  0.0583  0.0001 </r>
        <r>  0.3213  0.0000  0.0000  0.0001  0.0000  0.0000  0.0000  0.0000  0.0000 </r>
       </set>
       <set comment="band 7">
        <r>  0.4186  0.0002  0.0002  0.0038  0.0003  0.0002  0.0064  0.0003  0.0192 </r>
        <r>  0.0004  0.0201  0.0201  0.2354  0.0000  0.0000  0.0000  0.0000  0.0000 </r>
       </set>
       <set comment="band 8">
        <r>  0.0019  0.0873  0.0873  0.0468  0.0027  0.0000  0.0046  0.0027  0.0139 </r>
        <r>  0.0002  0.1513  0.1513  0.0524  0.0000  0.0000  0.0000  0.0000  0.0000 </r>
       </set>
       <set comment="band 9">
        <r>  0.0000  0.0998  0.0998  0.0000  0.0112  0.0000  0.0050  0.0112  0.0017 </r>
        <r>  0.0000  0.2325  0.2325  0.0000  0.0000  0.0000  0.0000  0.0000  0.0000 </r>
       </set>
       <set comment="band 10">
        <r>  0.0340  0.0001  0.0001  0.1854  0.0044  0.1074  0.0027  0.0044  0.0082 </r>
        <r>  0.0551  0.0260  0.0260  0.0087  0.0000  0.0000  0.0000  0.0000  0.0000 </r>
       </set>
       <set comment="band 11">
        <r>  0.3747  0.0005  0.0005  0.0007  0.0030  0.0065  0.0114  0.0030  0.0342 </r>
        <r>  0.0010  0.0804  0.0804  0.1316  0.0000  0.0000  0.0000  0.0000  0.0000 </r>
       </set>
       <set comment="band 12">
        <r>  0.0340  0.0080  0.0080  0.0097  0.0161  0.0026  0.0104  0.0161  0.0312 </r>
        <r>  0.0059  0.0175  0.0175  0.3325  0.0000  0.0000  0.0000  0.0000  0.0000 </r>
       </set>
       <set comment="band 13">
        <r>  0.0000  0.1968  0.1968  0.0000  0.0342  0.0000  0.0008  0.0342  0.0003 </r>
        <r>  0.0000  0.1226  0.1226  0.0000  0.0000  0.0000  0.0000  0.0000  0.0000 </r>
       </set>
       <set comment="band 14">
        <r>  0.0012  0.1771  0.1771  0.0683  0.0114  0.0000  0.0127  0.0115  0.0381 </r>
        <r>  0.0607  0.0507  0.0507  0.0030  0.0000  0.0000  0.0000  0.0000  0.0000 </r>
       </set>
       <set comment="band 15">
        <r>  0.0000  0.1159  0.1159  0.0000  0.0191  0.0000  0.1852  0.0191  0.0617 </r>
        <r>  0.0000  0.0000  0.0000  0.0000  0.0000  0.0000  0.0000  0.0000  0.0000 </r>
       </set>
       <set comment="band 16">
        <r>  0.0048  0.0647  0.0646  0.2872  0.0035  0.1277  0.0002  0.0036  0.0006 </r>
        <r>  0.0668  0.0446  0.0449  0.0058  0.0000  0.0000  0.0000  0.0000  0.0000 </r>
       </set>
      </set>
      <set comment="kpoint 10">
       <set comment="band 1">
        <r>  0.0087  0.0108  0.0012  0.0206  0.0172  0.3173  0.0001  0.1696  0.0002 </r>
        <r>  0.3236  0.0000  0.0000  0.0000  0.0000  0.0000  0.0000  0.0000  0.0000 </r>
       </set>
       <set comment="band 2">
        <r>  0.0000  0.0000  0.0008  0.0000  0.0875  0.0853  0.0006  0.2815  0.5186 </r>
        <r>  0.0000  0.0044  0.0009  0.0022  0.0000  0.0000  0.0000  0.0000  0.0000 </r>
       </set>
       <set comment="band 3">
        <r>  0.0009  0.0001  0.0004  0.0000  0.0975  0.2771  0.0917  0.2916  0.2174 </r>
        <r>  0.0004  0.0000  0.0038  0.0038  0.0000  0.0000  0.0000  0.0000  0.0000 </r>
       </set>
       <set comment="band 4">
        <r>  0.0002  0.0001  0.0001  0.0000  0.7212  0.0126  0.1138  0.0092  0.1319 </r>
        <r>  0.0000  0.0021  0.0007  0.0001  0.0000  0.0000  0.0000  0.0000  0.0000 </r>
       </set>
       <set comment="band 5">
        <r>  0.0001  0.0000  0.0000  0.0001  0.0421  0.0145  0.7819  0.0484  0.1042 </r>
        <r>  0.0001  0.0001  0.0000  0.0003  0.0000  0.0000  0.0000  0.0000  0.0000 </r>
       </set>
       <set comment="band 6">
        <r>  0.0236  0.0102  0.0027  0.0315  0.0221  0.2902  0.0002  0.1966  0.0037 </r>
        <r>  0.2865  0.0001  0.0007  0.0036  0.0000  0.0000  0.0000  0.0000  0.0000 </r>
       </set>
       <set comment="band 7">
        <r>  0.3570  0.0345  0.0009  0.0000  0.0010  0.0131  0.0048  0.0011  0.0048 </r>
        <r>  0.0240  0.0479  0.0423  0.1826  0.0000  0.0000  0.0000  0.0000  0.0000 </r>
       </set>
       <set comment="band 8">
        <r>  0.0402  0.0505  0.1005  0.0405  0.0026  0.0001  0.0018  0.0089  0.0190 </r>
        <r>  0.0013  0.2716  0.0755  0.0167  0.0000  0.0000  0.0000  0.0000  0.0000 </r>
       </set>
       <set comment="band 9">
        <r>  0.0060  0.0621  0.0724  0.0601  0.0177  0.0031  0.0029  0.0001  0.0176 </r>
        <r>  0.0008  0.0406  0.2583  0.1207  0.0000  0.0000  0.0000  0.0000  0.0000 </r>
       </set>
       <set comment="band 10">
        <r>  0.0009  0.0017  0.0002  0.1203  0.0000  0.0884  0.0000  0.0399  0.0032 </r>
        <r>  0.0214  0.0007  0.2036  0.0190  0.0000  0.0000  0.0000  0.0000  0.0000 </r>
       </set>
       <set comment="band 11">
        <r>  0.3966  0.0298  0.0000  0.0001  0.0002  0.0037  0.0113  0.0099  0.0019 </r>
        <r>  0.0258  0.1480  0.0018  0.1819  0.0000  0.0000  0.0000  0.0000  0.0000 </r>
       </set>
       <set comment="band 12">
        <r>  0.0130  0.1817  0.0077  0.0775  0.0102  0.0010  0.0001  0.0136  0.0386 </r>
        <r>  0.0600  0.0698  0.0212  0.0074  0.0000  0.0000  0.0000  0.0000  0.0000 </r>
       </set>
       <set comment="band 13">
        <r>  0.0049  0.0604  0.0577  0.0712  0.0375  0.0088  0.0044  0.0239  0.0234 </r>
        <r>  0.0101  0.0515  0.0151  0.1969  0.0000  0.0000  0.0000  0.0000  0.0000 </r>
       </set>
       <set comment="band 14">
        <r>  0.0001  0.0477  0.4940  0.0002  0.0128  0.0026  0.0131  0.0012  0.0593 </r>
        <r>  0.0076  0.0942  0.0145  0.0003  0.0000  0.0000  0.0000  0.0000  0.0000 </r>
       </set>
       <set comment="band 15">
        <r>  0.0174  0.0157  0.0365  0.0314  0.0001  0.0174  0.2149  0.0000  0.0097 </r>
        <r>  0.0207  0.0196  0.0090  0.0091  0.0000  0.0000  0.0000  0.0000  0.0000 </r>
       </set>
       <set comment="band 16">
        <r>  0.0173  0.1723  0.0075  0.2760  0.0072  0.0786  0.0000  0.0373  0.0065 </r>
        <r>  0.0170  0.0107  0.0994  0.0000  0.0000  0.0000  0.0000  0.0000  0.0000 </r>
       </set>
      </set>
     </set>
    </set>
   </array>
  </projected>
 </calculation>
 <structure name="finalpos" >
  <crystal>
   <varray name="basis" >
    <v>       2.27250000       0.00000000       2.27250000 </v>
    <v>       2.27250000       2.27250000       0.00000000 </v>
    <v>       0.00000000       2.27250000       2.27250000 </v>
   </varray>
   <i name="volume">     23.47154466 </i>
   <varray name="rec_basis" >
    <v>       0.22002200      -0.22002200       0.22002200 </v>
    <v>       0.22002200       0.22002200      -0.22002200 </v>
    <v>      -0.22002200       0.22002200       0.22002200 </v>
   </varray>
  </crystal>
  <varray name="positions" >
   <v>       0.00000000       0.00000000       0.00000000 </v>
   <v>       0.25000000       0.25000000       0.25000000 </v>
  </varray>
 </structure>
</modeling>
