    2    2    1    2
  0.8933521E+02  0.3211199E-09  0.3211435E-09  0.2000530E-08  0.5000000E-15
  1.000000000000000E-004
  CAR 
 unknown system                          
     18     36     16
 
  0.0000000E+00  0.0000000E+00  0.0000000E+00  0.8264463E-02
    1      -21.206780    -21.207002
    2      -18.189091    -18.189038
    3      -18.189026    -18.188972
    4      -17.479459    -17.479473
    5      -17.479288    -17.479303
    6      -16.893375    -16.893525
    7       -8.095665     -8.096360
    8       -6.485190     -6.485519
    9       -6.483486     -6.483809
   10       -2.296689     -2.300017
   11        0.803012      0.758103
   12        1.050950      1.001267
   13        1.501478      1.449136
   14        2.165400      2.107347
   15        3.327411      3.281285
   16        3.585071      3.507155
 
  0.9090909E-01 -0.6938894E-17  0.0000000E+00  0.3305785E-01
    1      -21.140710    -21.140934
    2      -18.170937    -18.170888
    3      -18.161202    -18.161148
    4      -17.491593    -17.491607
    5      -17.481020    -17.481035
    6      -16.881237    -16.881383
    7       -7.982991     -7.983674
    8       -7.048556     -7.048886
    9       -6.644917     -6.645236
   10       -1.857254     -1.861037
   11        0.887636      0.846650
   12        1.216349      1.167384
   13        1.684961      1.631544
   14        2.287714      2.226947
   15        3.497467      3.452149
   16        3.658798      3.583934
 
  0.1818182E+00 -0.1387779E-16  0.0000000E+00  0.3305785E-01
    1      -20.964170    -20.964396
    2      -18.105224    -18.105189
    3      -18.084780    -18.084724
    4      -17.523843    -17.523858
    5      -17.485346    -17.485361
    6      -16.842713    -16.842844
    7       -8.277931     -8.278237
    8       -7.665112     -7.665756
    9       -7.051750     -7.052051
   10       -0.991858     -0.996561
   11        1.073471      1.044581
   12        1.704567      1.656657
   13        2.194074      2.140229
   14        2.645628      2.575721
   15        3.899391      3.833433
   16        3.944835      3.900951
 
  0.2727273E+00  0.0000000E+00  0.0000000E+00  0.3305785E-01
    1      -20.739051    -20.739275
    2      -17.980747    -17.980688
    3      -17.971997    -17.971991
    4      -17.564772    -17.564788
    5      -17.491009    -17.491023
    6      -16.769047    -16.769149
    7       -9.647900     -9.648174
    8       -7.544855     -7.545138
    9       -7.206180     -7.206759
   10       -0.186549     -0.190967
   11        1.148732      1.135074
   12        2.485572      2.435752
   13        2.848196      2.807943
   14        3.250164      3.168624
   15        4.159389      4.123271
   16        4.404634      4.350824
 
  0.3636364E+00 -0.2775558E-16  0.0000000E+00  0.3305785E-01
    1      -20.545630    -20.545847
    2      -17.880773    -17.880711
    3      -17.791540    -17.791580
    4      -17.601152    -17.601169
    5      -17.496209    -17.496223
    6      -16.647208    -16.647266
    7      -10.855030    -10.855284
    8       -7.968194     -7.968465
    9       -6.725536     -6.726030
   10        0.314414      0.311951
   11        0.967698      0.962202
   12        3.288660      3.253488
   13        3.719401      3.686835
   14        4.154664      4.071557
   15        4.756988      4.704633
   16        5.252022      5.208299
 
  0.4545455E+00  0.2775558E-16  0.0000000E+00  0.3305785E-01
    1      -20.440288    -20.440500
    2      -17.819182    -17.819117
    3      -17.658994    -17.659075
    4      -17.622234    -17.622252
    5      -17.499297    -17.499312
    6      -16.515706    -16.515722
    7      -11.603932    -11.604180
    8       -8.209287     -8.209553
    9       -6.401948     -6.402374
   10        0.482532      0.481306
   11        0.735428      0.732299
   12        3.951433      3.938144
   13        5.102806      5.059291
   14        5.222579      5.161385
   15        5.582552      5.533888
   16        6.224625      6.171051
 
  0.0000000E+00  0.9090909E-01  0.0000000E+00  0.1652893E-01
    1      -21.140696    -21.140919
    2      -18.171000    -18.170951
    3      -18.161156    -18.161102
    4      -17.491715    -17.491729
    5      -17.480899    -17.480914
    6      -16.881249    -16.881394
    7       -7.982994     -7.983676
    8       -7.049785     -7.050118
    9       -6.643662     -6.643978
   10       -1.857255     -1.861038
   11        0.887607      0.846621
   12        1.216327      1.167363
   13        1.684953      1.631534
   14        2.287685      2.226918
   15        3.497459      3.452147
   16        3.658758      3.583894
 
  0.9090909E-01  0.9090909E-01  0.0000000E+00  0.3305785E-01
    1      -21.019261    -21.019486
    2      -18.136946    -18.136902
    3      -18.101163    -18.101111
    4      -17.513373    -17.513388
    5      -17.484443    -17.484458
    6      -16.855719    -16.855855
    7       -7.886152     -7.886471
    8       -7.767491     -7.768147
    9       -6.973341     -6.973642
   10       -1.212302     -1.216863
   11        1.024068      0.991181
   12        1.544071      1.496135
   13        2.040158      1.985326
   14        2.527470      2.460678
   15        3.815609      3.746607
   16        3.828584      3.784432
 
  0.1818182E+00  0.9090909E-01  0.0000000E+00  0.3305785E-01
    1      -20.818056    -20.818281
    2      -18.061961    -18.061924
    3      -17.986065    -17.986025
    4      -17.548475    -17.548490
    5      -17.490814    -17.490830
    6      -16.797541    -16.797655
    7       -9.082406     -9.082697
    8       -7.514433     -7.514712
    9       -7.377693     -7.378297
   10       -0.348531     -0.353772
   11        1.157471      1.138700
   12        2.188253      2.140732
   13        2.674304      2.621923
   14        3.006934      2.929086
   15        4.156393      4.129852
   16        4.192917      4.135519
 
  0.2727273E+00  0.9090909E-01  0.0000000E+00  0.3305785E-01
    1      -20.609503    -20.609724
    2      -17.952558    -17.952518
    3      -17.835200    -17.835199
    4      -17.585344    -17.585361
    5      -17.497817    -17.497832
    6      -16.689867    -16.689943
    7      -10.306990    -10.307255
    8       -8.047580     -8.047843
    9       -6.902529     -6.903057
   10        0.390572      0.386512
   11        1.092552      1.084632
   12        3.070393      3.021606
   13        3.338905      3.310812
   14        3.769856      3.685583
   15        4.376481      4.335508
   16        4.892453      4.844752
 
  0.3636364E+00  0.9090909E-01  0.0000000E+00  0.3305785E-01
    1      -20.462961    -20.463174
    2      -17.855228    -17.855175
    3      -17.696705    -17.696760
    4      -17.612639    -17.612656
    5      -17.503183    -17.503198
    6      -16.534281    -16.534313
    7      -11.270447    -11.270699
    8       -8.423178     -8.423433
    9       -6.489675     -6.490123
   10        0.777808      0.775776
   11        0.871648      0.867964
   12        3.730568      3.710011
   13        4.486722      4.448341
   14        4.798908      4.723467
   15        5.255227      5.201163
   16        5.843607      5.802696
 
  0.4545455E+00  0.9090909E-01  0.0000000E+00  0.3305785E-01
    1      -20.412108    -20.412318
    2      -17.816898    -17.816839
    3      -17.641586    -17.641667
    4      -17.622610    -17.622628
    5      -17.505193    -17.505208
    6      -16.443616    -16.443627
    7      -11.652392    -11.652642
    8       -8.557549     -8.557802
    9       -6.320818     -6.321228
   10        0.743152      0.740311
   11        0.874495      0.873248
   12        4.150653      4.142486
   13        5.499724      5.462420
   14        5.768810      5.711368
   15        6.072944      6.034834
   16        6.172348      6.135352
 
 -0.4545455E+00  0.9090909E-01  0.0000000E+00  0.3305785E-01
    1      -20.462999    -20.463212
    2      -17.855466    -17.855414
    3      -17.696461    -17.696516
    4      -17.612616    -17.612633
    5      -17.503205    -17.503220
    6      -16.534176    -16.534208
    7      -11.270421    -11.270673
    8       -8.423217     -8.423472
    9       -6.489671     -6.490119
   10        0.777855      0.775824
   11        0.871757      0.868071
   12        3.730353      3.709810
   13        4.486902      4.448515
   14        4.799042      4.723609
   15        5.255142      5.201077
   16        5.843719      5.802808
 
 -0.3636364E+00  0.9090909E-01  0.0000000E+00  0.3305785E-01
    1      -20.609565    -20.609786
    2      -17.952948    -17.952909
    3      -17.834767    -17.834765
    4      -17.585295    -17.585312
    5      -17.497864    -17.497879
    6      -16.689757    -16.689834
    7      -10.306817    -10.307081
    8       -8.047742     -8.048006
    9       -6.902522     -6.903050
   10        0.390620      0.386561
   11        1.092728      1.084806
   12        3.070471      3.021693
   13        3.338920      3.310837
   14        3.770014      3.685742
   15        4.375856      4.334885
   16        4.892597      4.844898
 
 -0.2727273E+00  0.9090909E-01  0.0000000E+00  0.3305785E-01
    1      -20.818120    -20.818345
    2      -18.062288    -18.062251
    3      -17.985674    -17.985634
    4      -17.548391    -17.548407
    5      -17.490896    -17.490911
    6      -16.797471    -16.797585
    7       -9.081901     -9.082190
    8       -7.514912     -7.515193
    9       -7.377685     -7.378289
   10       -0.348546     -0.353784
   11        1.157628      1.138854
   12        2.188367      2.140845
   13        2.674400      2.622020
   14        3.007070      2.929222
   15        4.155769      4.129428
   16        4.193060      4.135532
 
 -0.1818182E+00  0.9090909E-01  0.0000000E+00  0.1652893E-01
    1      -21.019306    -21.019531
    2      -18.137082    -18.137038
    3      -18.100976    -18.100924
    4      -17.513242    -17.513258
    5      -17.484573    -17.484587
    6      -16.855682    -16.855818
    7       -7.885082     -7.885400
    8       -7.767484     -7.768141
    9       -6.974416     -6.974719
   10       -1.212336     -1.216894
   11        1.024160      0.991271
   12        1.544136      1.496200
   13        2.040193      1.985364
   14        2.527556      2.460765
   15        3.815722      3.746717
   16        3.828629      3.784475
 
  0.0000000E+00  0.1818182E+00  0.0000000E+00  0.1652893E-01
    1      -20.964107    -20.964332
    2      -18.105338    -18.105303
    3      -18.084739    -18.084682
    4      -17.523969    -17.523984
    5      -17.485222    -17.485237
    6      -16.842765    -16.842896
    7       -8.279126     -8.279434
    8       -7.665119     -7.665763
    9       -7.050507     -7.050804
   10       -0.991741     -0.996448
   11        1.073330      1.044444
   12        1.704487      1.656578
   13        2.194083      2.140231
   14        2.645504      2.575596
   15        3.899229      3.833275
   16        3.944950      3.901069
 
  0.9090909E-01  0.1818182E+00  0.0000000E+00  0.3305785E-01
    1      -20.818001    -20.818226
    2      -18.062067    -18.062030
    3      -17.986019    -17.985979
    4      -17.548538    -17.548553
    5      -17.490752    -17.490768
    6      -16.797586    -16.797700
    7       -9.083067     -9.083359
    8       -7.513723     -7.514001
    9       -7.377694     -7.378298
   10       -0.348357     -0.353601
   11        1.157333      1.138564
   12        2.188202      2.140684
   13        2.674400      2.622006
   14        3.006834      2.928985
   15        4.156677      4.130067
   16        4.192795      4.135495
 
  0.1818182E+00  0.1818182E+00  0.0000000E+00  0.3305785E-01
    1      -20.633454    -20.633677
    2      -17.994358    -17.994323
    3      -17.839392    -17.839379
    4      -17.577112    -17.577129
    5      -17.500730    -17.500746
    6      -16.698955    -16.699038
    7       -9.990881     -9.991158
    8       -8.241754     -8.242003
    9       -6.967701     -6.968242
   10        0.527478      0.521962
   11        1.145106      1.135856
   12        2.984962      2.937140
   13        3.386852      3.346202
   14        3.647842      3.563881
   15        4.148709      4.127991
   16        4.783146      4.733359
 
  0.2727273E+00  0.1818182E+00  0.0000000E+00  0.3305785E-01
    1      -20.475025    -20.475241
    2      -17.903454    -17.903416
    3      -17.713083    -17.713113
    4      -17.601327    -17.601344
    5      -17.511119    -17.511134
    6      -16.527320    -16.527363
    7      -10.847634    -10.847900
    8       -8.885565     -8.885796
    9       -6.546949     -6.547412
   10        1.009750      1.005238
   11        1.295641      1.291814
   12        3.740579      3.716882
   13        4.174654      4.139416
   14        4.573511      4.493214
   15        4.928070      4.876548
   16        5.639093      5.598856
 
  0.3636364E+00  0.1818182E+00  0.0000000E+00  0.3305785E-01
    1      -20.387903    -20.388113
    2      -17.829375    -17.829324
    3      -17.656587    -17.656656
    4      -17.615001    -17.615018
    5      -17.517652    -17.517667
    6      -16.354919    -16.354934
    7      -11.413505    -11.413765
    8       -9.238491     -9.238717
    9       -6.270357     -6.270762
   10        0.881954      0.879099
   11        1.653079      1.651213
   12        4.247756      4.238259
   13        5.369449      5.334758
   14        5.572195      5.526597
   15        6.010327      5.962304
   16        6.394693      6.326307
 
  0.4545455E+00  0.1818182E+00  0.0000000E+00  0.3305785E-01
    1      -20.387944    -20.388154
    2      -17.829553    -17.829503
    3      -17.656406    -17.656475
    4      -17.614975    -17.614992
    5      -17.517677    -17.517692
    6      -16.354798    -16.354813
    7      -11.413447    -11.413707
    8       -9.238587     -9.238813
    9       -6.270356     -6.270761
   10        0.882098      0.879241
   11        1.653154      1.651288
   12        4.247317      4.237829
   13        5.369437      5.334769
   14        5.572637      5.527033
   15        6.010679      5.962652
   16        6.395041      6.326629
 
 -0.4545455E+00  0.1818182E+00  0.0000000E+00  0.3305785E-01
    1      -20.475136    -20.475351
    2      -17.903812    -17.903774
    3      -17.712679    -17.712708
    4      -17.601250    -17.601268
    5      -17.511193    -17.511208
    6      -16.527079    -16.527123
    7      -10.847325    -10.847590
    8       -8.885931     -8.886164
    9       -6.546945     -6.547408
   10        1.010109      1.005592
   11        1.295747      1.291922
   12        3.740026      3.716388
   13        4.174888      4.139623
   14        4.573810      4.493522
   15        4.927647      4.876109
   16        5.639317      5.599090
 
 -0.3636364E+00  0.1818182E+00  0.0000000E+00  0.1652893E-01
    1      -20.633597    -20.633819
    2      -17.994700    -17.994665
    3      -17.838935    -17.838922
    4      -17.576990    -17.577007
    5      -17.500849    -17.500864
    6      -16.698759    -16.698842
    7       -9.990120     -9.990396
    8       -8.242538     -8.242789
    9       -6.967695     -6.968235
   10        0.527402      0.521891
   11        1.145512      1.136256
   12        2.985212      2.937389
   13        3.386835      3.346223
   14        3.648148      3.564189
   15        4.147405      4.126670
   16        4.783447      4.733662
 
  0.0000000E+00  0.2727273E+00  0.0000000E+00  0.1652893E-01
    1      -20.738898    -20.739122
    2      -17.980706    -17.980646
    3      -17.972195    -17.972189
    4      -17.564903    -17.564919
    5      -17.490881    -17.490896
    6      -16.769191    -16.769293
    7       -9.649033     -9.649309
    8       -7.543620     -7.543900
    9       -7.206183     -7.206761
   10       -0.186044     -0.190469
   11        1.148313      1.134662
   12        2.485457      2.435645
   13        2.848371      2.808090
   14        3.249881      3.168341
   15        4.159648      4.123557
   16        4.404317      4.350512
 
  0.9090909E-01  0.2727273E+00  0.0000000E+00  0.3305785E-01
    1      -20.609351    -20.609572
    2      -17.952697    -17.952657
    3      -17.835200    -17.835199
    4      -17.585442    -17.585458
    5      -17.497722    -17.497738
    6      -16.690020    -16.690097
    7      -10.307886    -10.308153
    8       -8.046554     -8.046815
    9       -6.902520     -6.903048
   10        0.391275      0.387207
   11        1.092082      1.084167
   12        3.070472      3.021679
   13        3.339001      3.310904
   14        3.769601      3.685328
   15        4.376080      4.335138
   16        4.892183      4.844484
 
  0.1818182E+00  0.2727273E+00  0.0000000E+00  0.3305785E-01
    1      -20.474928    -20.475144
    2      -17.903502    -17.903464
    3      -17.713106    -17.713136
    4      -17.601381    -17.601398
    5      -17.511067    -17.511082
    6      -16.527438    -16.527481
    7      -10.848161    -10.848427
    8       -8.884947     -8.885177
    9       -6.546937     -6.547401
   10        1.009417      1.004907
   11        1.296205      1.292373
   12        3.740675      3.716986
   13        4.174522      4.139285
   14        4.573356      4.493060
   15        4.927710      4.876187
   16        5.638954      5.598716
 
  0.2727273E+00  0.2727273E+00  0.0000000E+00  0.3305785E-01
    1      -20.378177    -20.378388
    2      -17.837395    -17.837349
    3      -17.667080    -17.667142
    4      -17.609519    -17.609536
    5      -17.524948    -17.524963
    6      -16.316349    -16.316368
    7      -11.184139    -11.184413
    8       -9.652127     -9.652331
    9       -6.254285     -6.254689
   10        0.970589      0.967673
   11        2.058791      2.056160
   12        4.331708      4.321167
   13        5.272011      5.239295
   14        5.425573      5.382500
   15        6.004040      5.950485
   16        6.209525      6.145496
 
  0.3636364E+00  0.2727273E+00  0.0000000E+00  0.3305785E-01
    1      -20.343638    -20.343846
    2      -17.797600    -17.797535
    3      -17.670447    -17.670534
    4      -17.611519    -17.611537
    5      -17.531083    -17.531097
    6      -16.211202    -16.211212
    7      -11.292400    -11.292681
    8       -9.968491     -9.968682
    9       -6.139764     -6.140144
   10        0.967711      0.965277
   11        2.313950      2.312108
   12        4.840536      4.834668
   13        5.187131      5.177605
   14        6.388826      6.351869
   15        7.019629      6.978052
   16        7.178415      7.034695
 
  0.4545455E+00  0.2727273E+00  0.0000000E+00  0.1652893E-01
    1      -20.378305    -20.378516
    2      -17.837687    -17.837641
    3      -17.666747    -17.666809
    4      -17.609434    -17.609452
    5      -17.525030    -17.525044
    6      -16.316062    -16.316081
    7      -11.183642    -11.183916
    8       -9.652749     -9.652954
    9       -6.254294     -6.254698
   10        0.971072      0.968152
   11        2.058671      2.056043
   12        4.330857      4.320338
   13        5.271896      5.239230
   14        5.426154      5.383071
   15        6.004329      5.950766
   16        6.209897      6.145831
 
  0.0000000E+00  0.3636364E+00  0.0000000E+00  0.1652893E-01
    1      -20.545370    -20.545588
    2      -17.880744    -17.880681
    3      -17.791779    -17.791820
    4      -17.601288    -17.601305
    5      -17.496078    -17.496093
    6      -16.647526    -16.647583
    7      -10.856051    -10.856307
    8       -7.966961     -7.967230
    9       -6.725517     -6.726012
   10        0.315639      0.313168
   11        0.966867      0.961378
   12        3.288748      3.253566
   13        3.719071      3.686513
   14        4.154219      4.071113
   15        4.756525      4.704183
   16        5.251599      5.207875
 
  0.9090909E-01  0.3636364E+00  0.0000000E+00  0.3305785E-01
    1      -20.462708    -20.462921
    2      -17.855291    -17.855238
    3      -17.696817    -17.696873
    4      -17.612758    -17.612775
    5      -17.503069    -17.503084
    6      -16.534627    -16.534660
    7      -11.271354    -11.271608
    8       -8.422029     -8.422282
    9       -6.489643     -6.490092
   10        0.779141      0.777099
   11        0.870865      0.867190
   12        3.730337      3.709790
   13        4.486352      4.447969
   14        4.798526      4.723082
   15        5.254638      5.200574
   16        5.843306      5.802389
 
  0.1818182E+00  0.3636364E+00  0.0000000E+00  0.3305785E-01
    1      -20.387717    -20.387927
    2      -17.829347    -17.829296
    3      -17.656719    -17.656788
    4      -17.615095    -17.615112
    5      -17.517561    -17.517576
    6      -16.355224    -16.355240
    7      -11.414252    -11.414513
    8       -9.237547     -9.237771
    9       -6.270328     -6.270734
   10        0.881237      0.878387
   11        1.654235      1.652364
   12        4.247408      4.237914
   13        5.369467      5.334748
   14        5.571914      5.526315
   15        6.010099      5.962070
   16        6.394654      6.326278
 
  0.2727273E+00  0.3636364E+00  0.0000000E+00  0.1652893E-01
    1      -20.343553    -20.343761
    2      -17.797472    -17.797408
    3      -17.670609    -17.670697
    4      -17.611572    -17.611589
    5      -17.531032    -17.531046
    6      -16.211378    -16.211388
    7      -11.292870    -11.293152
    8       -9.967919     -9.968109
    9       -6.139753     -6.140133
   10        0.967346      0.964915
   11        2.314323      2.312481
   12        4.840785      4.834916
   13        5.187385      5.177853
   14        6.388437      6.351537
   15        7.019065      6.977529
   16        7.178013      7.034149
 
  0.0000000E+00  0.4545455E+00  0.0000000E+00  0.1652893E-01
    1      -20.439957    -20.440168
    2      -17.819157    -17.819092
    3      -17.659218    -17.659300
    4      -17.622373    -17.622390
    5      -17.499165    -17.499180
    6      -16.516216    -16.516233
    7      -11.604841    -11.605091
    8       -8.208055     -8.208318
    9       -6.401902     -6.402329
   10        0.484291      0.483059
   11        0.734309      0.731188
   12        3.950863      3.937580
   13        5.102207      5.058691
   14        5.222159      5.160946
   15        5.581948      5.533281
   16        6.224234      6.170663
 
  0.9090909E-01  0.4545455E+00  0.0000000E+00  0.1652893E-01
    1      -20.411801    -20.412011
    2      -17.816847    -17.816787
    3      -17.641808    -17.641889
    4      -17.622743    -17.622760
    5      -17.505066    -17.505081
    6      -16.444122    -16.444133
    7      -11.653259    -11.653511
    8       -8.556366     -8.556616
    9       -6.320772     -6.321184
   10        0.742098      0.739263
   11        0.876166      0.874914
   12        4.150009      4.141844
   13        5.499591      5.462259
   14        5.768308      5.710864
   15        6.072243      6.034141
   16        6.171699      6.134692
