PROCAR lm decomposed
# of k-points:   36         # of bands:  16         # of ions:   2

 k-point    1 :    0.00000000 0.00000000 0.00000000     weight = 0.00826446

band   1 # energy  -21.20677972 # occ.  1.00000000
 
ion      s     py     pz     px    dxy    dyz    dz2    dxz    dx2    tot
  1  0.166  0.000  0.000  0.000  0.000  0.000  0.160  0.000  0.000  0.326
  2  0.466  0.000  0.000  0.000  0.000  0.000  0.000  0.000  0.000  0.466
tot  0.633  0.000  0.000  0.000  0.000  0.000  0.160  0.000  0.000  0.793
 
band   2 # energy  -18.18909056 # occ.  1.00000000
 
ion      s     py     pz     px    dxy    dyz    dz2    dxz    dx2    tot
  1  0.000  0.003  0.000  0.000  0.000  0.000  0.000  0.000  0.944  0.948
  2  0.000  0.037  0.000  0.000  0.000  0.000  0.000  0.000  0.000  0.037
tot  0.000  0.040  0.000  0.000  0.000  0.000  0.000  0.000  0.944  0.985
 
band   3 # energy  -18.18902552 # occ.  1.00000000
 
ion      s     py     pz     px    dxy    dyz    dz2    dxz    dx2    tot
  1  0.000  0.000  0.000  0.003  0.944  0.000  0.000  0.000  0.000  0.948
  2  0.000  0.000  0.000  0.037  0.000  0.000  0.000  0.000  0.000  0.037
tot  0.000  0.000  0.000  0.040  0.944  0.000  0.000  0.000  0.000  0.985
 
band   4 # energy  -17.47945864 # occ.  1.00000000
 
ion      s     py     pz     px    dxy    dyz    dz2    dxz    dx2    tot
  1  0.000  0.000  0.000  0.000  0.000  0.991  0.000  0.002  0.000  0.993
  2  0.000  0.000  0.000  0.000  0.000  0.000  0.000  0.000  0.000  0.000
tot  0.000  0.000  0.000  0.000  0.000  0.991  0.000  0.002  0.000  0.993
 
band   5 # energy  -17.47928831 # occ.  1.00000000
 
ion      s     py     pz     px    dxy    dyz    dz2    dxz    dx2    tot
  1  0.000  0.000  0.000  0.000  0.000  0.002  0.000  0.991  0.000  0.993
  2  0.000  0.000  0.000  0.000  0.000  0.000  0.000  0.000  0.000  0.000
tot  0.000  0.000  0.000  0.000  0.000  0.002  0.000  0.991  0.000  0.993
 
band   6 # energy  -16.89337483 # occ.  1.00000000
 
ion      s     py     pz     px    dxy    dyz    dz2    dxz    dx2    tot
  1  0.039  0.000  0.000  0.000  0.000  0.000  0.849  0.000  0.000  0.888
  2  0.061  0.000  0.000  0.000  0.000  0.000  0.000  0.000  0.000  0.061
tot  0.101  0.000  0.000  0.000  0.000  0.000  0.849  0.000  0.000  0.949
 
band   7 # energy   -8.09566519 # occ.  1.00000000
 
ion      s     py     pz     px    dxy    dyz    dz2    dxz    dx2    tot
  1  0.000  0.000  0.121  0.000  0.000  0.000  0.000  0.000  0.000  0.121
  2  0.000  0.000  0.392  0.000  0.000  0.000  0.000  0.000  0.000  0.392
tot  0.000  0.000  0.513  0.000  0.000  0.000  0.000  0.000  0.000  0.513
 
band   8 # energy   -6.48519005 # occ.  1.00000000
 
ion      s     py     pz     px    dxy    dyz    dz2    dxz    dx2    tot
  1  0.000  0.142  0.000  0.000  0.000  0.000  0.000  0.000  0.168  0.310
  2  0.000  0.564  0.000  0.000  0.000  0.000  0.000  0.000  0.000  0.564
tot  0.000  0.706  0.000  0.000  0.000  0.000  0.000  0.000  0.168  0.874
 
band   9 # energy   -6.48348555 # occ.  1.00000000
 
ion      s     py     pz     px    dxy    dyz    dz2    dxz    dx2    tot
  1  0.000  0.000  0.000  0.142  0.168  0.000  0.000  0.000  0.000  0.310
  2  0.000  0.000  0.000  0.564  0.000  0.000  0.000  0.000  0.000  0.564
tot  0.000  0.000  0.000  0.706  0.168  0.000  0.000  0.000  0.000  0.874
 
band  10 # energy   -2.29668867 # occ.  0.00000000
 
ion      s     py     pz     px    dxy    dyz    dz2    dxz    dx2    tot
  1  0.314  0.000  0.000  0.000  0.000  0.000  0.028  0.000  0.000  0.343
  2  0.238  0.000  0.000  0.000  0.000  0.000  0.000  0.000  0.000  0.238
tot  0.552  0.000  0.000  0.000  0.000  0.000  0.028  0.000  0.000  0.580
 
band  11 # energy    0.80301181 # occ.  0.00000000
 
ion      s     py     pz     px    dxy    dyz    dz2    dxz    dx2    tot
  1  0.000  0.000  0.026  0.000  0.000  0.000  0.000  0.000  0.000  0.027
  2  0.000  0.000  0.127  0.000  0.000  0.000  0.000  0.000  0.000  0.127
tot  0.000  0.000  0.153  0.000  0.000  0.000  0.000  0.000  0.000  0.154
 
band  12 # energy    1.05094994 # occ.  0.00000000
 
ion      s     py     pz     px    dxy    dyz    dz2    dxz    dx2    tot
  1  0.013  0.000  0.000  0.000  0.000  0.000  0.000  0.000  0.000  0.013
  2  0.004  0.000  0.000  0.000  0.000  0.000  0.000  0.000  0.000  0.004
tot  0.017  0.000  0.000  0.000  0.000  0.000  0.000  0.000  0.000  0.017
 
band  13 # energy    1.50147823 # occ.  0.00000000
 
ion      s     py     pz     px    dxy    dyz    dz2    dxz    dx2    tot
  1  0.067  0.000  0.000  0.000  0.000  0.000  0.001  0.000  0.000  0.068
  2  0.016  0.000  0.000  0.000  0.000  0.000  0.000  0.000  0.000  0.016
tot  0.083  0.000  0.000  0.000  0.000  0.000  0.001  0.000  0.000  0.084
 
band  14 # energy    2.16539961 # occ.  0.00000000
 
ion      s     py     pz     px    dxy    dyz    dz2    dxz    dx2    tot
  1  0.000  0.000  0.024  0.000  0.000  0.000  0.000  0.000  0.000  0.024
  2  0.000  0.000  0.050  0.000  0.000  0.000  0.000  0.000  0.000  0.050
tot  0.000  0.000  0.074  0.000  0.000  0.000  0.000  0.000  0.000  0.074
 
band  15 # energy    3.32741073 # occ.  0.00000000
 
ion      s     py     pz     px    dxy    dyz    dz2    dxz    dx2    tot
  1  0.044  0.000  0.000  0.000  0.000  0.000  0.004  0.000  0.000  0.048
  2  0.006  0.000  0.000  0.000  0.000  0.000  0.000  0.000  0.000  0.006
tot  0.050  0.000  0.000  0.000  0.000  0.000  0.004  0.000  0.000  0.054
 
band  16 # energy    3.58507122 # occ.  0.00000000
 
ion      s     py     pz     px    dxy    dyz    dz2    dxz    dx2    tot
  1  0.000  0.000  0.077  0.000  0.000  0.000  0.000  0.000  0.000  0.077
  2  0.000  0.000  0.083  0.000  0.000  0.000  0.000  0.000  0.000  0.083
tot  0.000  0.000  0.159  0.000  0.000  0.000  0.000  0.000  0.000  0.159
 

 k-point    2 :    0.09090909-0.00000000 0.00000000     weight = 0.03305785

band   1 # energy  -21.14071000 # occ.  1.00000000
 
ion      s     py     pz     px    dxy    dyz    dz2    dxz    dx2    tot
  1  0.156  0.001  0.000  0.004  0.010  0.000  0.154  0.000  0.003  0.329
  2  0.467  0.000  0.000  0.000  0.000  0.000  0.000  0.000  0.000  0.467
tot  0.624  0.001  0.000  0.004  0.010  0.000  0.154  0.000  0.003  0.796
 
band   2 # energy  -18.17093710 # occ.  1.00000000
 
ion      s     py     pz     px    dxy    dyz    dz2    dxz    dx2    tot
  1  0.002  0.001  0.000  0.002  0.681  0.000  0.032  0.000  0.229  0.947
  2  0.000  0.009  0.000  0.027  0.000  0.000  0.000  0.000  0.000  0.037
tot  0.002  0.010  0.000  0.029  0.681  0.000  0.032  0.000  0.229  0.984
 
band   3 # energy  -18.16120152 # occ.  1.00000000
 
ion      s     py     pz     px    dxy    dyz    dz2    dxz    dx2    tot
  1  0.000  0.002  0.000  0.001  0.238  0.000  0.000  0.000  0.709  0.950
  2  0.000  0.027  0.000  0.009  0.000  0.000  0.000  0.000  0.000  0.036
tot  0.000  0.029  0.000  0.010  0.238  0.000  0.000  0.000  0.709  0.986
 
band   4 # energy  -17.49159258 # occ.  1.00000000
 
ion      s     py     pz     px    dxy    dyz    dz2    dxz    dx2    tot
  1  0.000  0.000  0.000  0.000  0.000  0.254  0.000  0.737  0.000  0.991
  2  0.000  0.000  0.001  0.000  0.000  0.000  0.000  0.000  0.000  0.001
tot  0.000  0.000  0.001  0.000  0.000  0.254  0.000  0.737  0.000  0.992
 
band   5 # energy  -17.48102024 # occ.  1.00000000
 
ion      s     py     pz     px    dxy    dyz    dz2    dxz    dx2    tot
  1  0.000  0.000  0.000  0.000  0.000  0.738  0.000  0.254  0.000  0.993
  2  0.000  0.000  0.000  0.000  0.000  0.000  0.000  0.000  0.000  0.000
tot  0.000  0.000  0.000  0.000  0.000  0.738  0.000  0.254  0.000  0.993
 
band   6 # energy  -16.88123727 # occ.  1.00000000
 
ion      s     py     pz     px    dxy    dyz    dz2    dxz    dx2    tot
  1  0.039  0.000  0.000  0.001  0.016  0.000  0.822  0.000  0.005  0.884
  2  0.064  0.000  0.000  0.000  0.000  0.000  0.000  0.000  0.000  0.064
tot  0.103  0.000  0.000  0.001  0.016  0.000  0.822  0.000  0.005  0.948
 
band   7 # energy   -7.98299130 # occ.  1.00000000
 
ion      s     py     pz     px    dxy    dyz    dz2    dxz    dx2    tot
  1  0.000  0.000  0.117  0.000  0.000  0.001  0.000  0.003  0.000  0.120
  2  0.000  0.000  0.398  0.000  0.000  0.000  0.000  0.000  0.000  0.398
tot  0.000  0.000  0.514  0.000  0.000  0.001  0.000  0.003  0.000  0.518
 
band   8 # energy   -7.04855620 # occ.  1.00000000
 
ion      s     py     pz     px    dxy    dyz    dz2    dxz    dx2    tot
  1  0.058  0.033  0.000  0.097  0.113  0.000  0.000  0.000  0.038  0.339
  2  0.024  0.124  0.000  0.370  0.000  0.000  0.000  0.000  0.000  0.518
tot  0.081  0.157  0.000  0.467  0.113  0.000  0.000  0.000  0.038  0.856
 
band   9 # energy   -6.64491681 # occ.  1.00000000
 
ion      s     py     pz     px    dxy    dyz    dz2    dxz    dx2    tot
  1  0.000  0.115  0.000  0.039  0.039  0.000  0.000  0.000  0.117  0.309
  2  0.000  0.416  0.000  0.140  0.000  0.000  0.000  0.000  0.000  0.556
tot  0.000  0.531  0.000  0.178  0.039  0.000  0.000  0.000  0.117  0.865
 
band  10 # energy   -1.85725442 # occ.  0.00000000
 
ion      s     py     pz     px    dxy    dyz    dz2    dxz    dx2    tot
  1  0.263  0.004  0.000  0.011  0.004  0.000  0.032  0.000  0.001  0.314
  2  0.204  0.015  0.000  0.044  0.000  0.000  0.000  0.000  0.000  0.263
tot  0.468  0.018  0.000  0.055  0.004  0.000  0.032  0.000  0.001  0.577
 
band  11 # energy    0.88763612 # occ.  0.00000000
 
ion      s     py     pz     px    dxy    dyz    dz2    dxz    dx2    tot
  1  0.000  0.000  0.036  0.000  0.000  0.000  0.000  0.000  0.000  0.036
  2  0.000  0.000  0.137  0.000  0.000  0.000  0.000  0.000  0.000  0.137
tot  0.000  0.000  0.172  0.000  0.000  0.000  0.000  0.000  0.000  0.173
 
band  12 # energy    1.21634854 # occ.  0.00000000
 
ion      s     py     pz     px    dxy    dyz    dz2    dxz    dx2    tot
  1  0.012  0.000  0.000  0.000  0.000  0.000  0.000  0.000  0.000  0.013
  2  0.003  0.000  0.000  0.001  0.000  0.000  0.000  0.000  0.000  0.004
tot  0.016  0.000  0.000  0.001  0.000  0.000  0.000  0.000  0.000  0.017
 
band  13 # energy    1.68496103 # occ.  0.00000000
 
ion      s     py     pz     px    dxy    dyz    dz2    dxz    dx2    tot
  1  0.070  0.000  0.000  0.001  0.000  0.000  0.001  0.000  0.000  0.072
  2  0.016  0.001  0.000  0.003  0.000  0.000  0.000  0.000  0.000  0.021
tot  0.087  0.001  0.000  0.004  0.000  0.000  0.001  0.000  0.000  0.093
 
band  14 # energy    2.28771383 # occ.  0.00000000
 
ion      s     py     pz     px    dxy    dyz    dz2    dxz    dx2    tot
  1  0.000  0.000  0.029  0.000  0.000  0.000  0.000  0.000  0.000  0.029
  2  0.000  0.000  0.048  0.000  0.000  0.000  0.000  0.000  0.000  0.048
tot  0.000  0.000  0.077  0.000  0.000  0.000  0.000  0.000  0.000  0.077
 
band  15 # energy    3.49746727 # occ.  0.00000000
 
ion      s     py     pz     px    dxy    dyz    dz2    dxz    dx2    tot
  1  0.046  0.000  0.000  0.001  0.000  0.000  0.004  0.000  0.000  0.051
  2  0.006  0.000  0.000  0.001  0.000  0.000  0.000  0.000  0.000  0.007
tot  0.052  0.001  0.000  0.002  0.000  0.000  0.004  0.000  0.000  0.058
 
band  16 # energy    3.65879811 # occ.  0.00000000
 
ion      s     py     pz     px    dxy    dyz    dz2    dxz    dx2    tot
  1  0.000  0.000  0.083  0.000  0.000  0.000  0.000  0.000  0.000  0.084
  2  0.000  0.000  0.073  0.000  0.000  0.000  0.000  0.000  0.000  0.073
tot  0.000  0.000  0.156  0.000  0.000  0.000  0.000  0.000  0.000  0.156
 

 k-point    3 :    0.18181818-0.00000000 0.00000000     weight = 0.03305785

band   1 # energy  -20.96417031 # occ.  1.00000000
 
ion      s     py     pz     px    dxy    dyz    dz2    dxz    dx2    tot
  1  0.128  0.004  0.000  0.013  0.042  0.000  0.135  0.000  0.014  0.338
  2  0.468  0.000  0.000  0.000  0.000  0.000  0.000  0.000  0.000  0.468
tot  0.596  0.005  0.000  0.014  0.042  0.000  0.135  0.000  0.014  0.806
 
band   2 # energy  -18.10522404 # occ.  1.00000000
 
ion      s     py     pz     px    dxy    dyz    dz2    dxz    dx2    tot
  1  0.007  0.000  0.000  0.001  0.601  0.000  0.135  0.000  0.199  0.944
  2  0.001  0.009  0.000  0.026  0.000  0.000  0.000  0.000  0.000  0.036
tot  0.009  0.009  0.000  0.027  0.601  0.000  0.135  0.000  0.199  0.980
 
band   3 # energy  -18.08477954 # occ.  1.00000000
 
ion      s     py     pz     px    dxy    dyz    dz2    dxz    dx2    tot
  1  0.000  0.002  0.000  0.001  0.237  0.000  0.000  0.000  0.715  0.956
  2  0.000  0.024  0.000  0.008  0.000  0.000  0.000  0.000  0.000  0.032
tot  0.000  0.026  0.000  0.009  0.237  0.000  0.000  0.000  0.715  0.988
 
band   4 # energy  -17.52384282 # occ.  1.00000000
 
ion      s     py     pz     px    dxy    dyz    dz2    dxz    dx2    tot
  1  0.000  0.000  0.000  0.000  0.000  0.249  0.000  0.739  0.000  0.987
  2  0.000  0.000  0.002  0.000  0.000  0.000  0.000  0.000  0.000  0.002
tot  0.000  0.000  0.002  0.000  0.000  0.249  0.000  0.739  0.000  0.989
 
band   5 # energy  -17.48534627 # occ.  1.00000000
 
ion      s     py     pz     px    dxy    dyz    dz2    dxz    dx2    tot
  1  0.000  0.000  0.000  0.000  0.000  0.743  0.000  0.250  0.000  0.992
  2  0.000  0.000  0.000  0.000  0.000  0.000  0.000  0.000  0.000  0.000
tot  0.000  0.000  0.000  0.000  0.000  0.743  0.000  0.250  0.000  0.992
 
band   6 # energy  -16.84271326 # occ.  1.00000000
 
ion      s     py     pz     px    dxy    dyz    dz2    dxz    dx2    tot
  1  0.040  0.001  0.000  0.003  0.069  0.000  0.734  0.000  0.023  0.868
  2  0.073  0.000  0.000  0.001  0.000  0.000  0.000  0.000  0.000  0.075
tot  0.113  0.001  0.000  0.004  0.069  0.000  0.734  0.000  0.023  0.943
 
band   7 # energy   -8.27793135 # occ.  1.00000000
 
ion      s     py     pz     px    dxy    dyz    dz2    dxz    dx2    tot
  1  0.145  0.028  0.000  0.084  0.092  0.000  0.002  0.000  0.031  0.382
  2  0.046  0.101  0.000  0.302  0.000  0.000  0.000  0.000  0.000  0.449
tot  0.191  0.129  0.000  0.386  0.092  0.000  0.002  0.000  0.031  0.831
 
band   8 # energy   -7.66511234 # occ.  1.00000000
 
ion      s     py     pz     px    dxy    dyz    dz2    dxz    dx2    tot
  1  0.000  0.000  0.103  0.000  0.000  0.003  0.000  0.010  0.000  0.116
  2  0.000  0.000  0.416  0.000  0.000  0.000  0.000  0.000  0.000  0.416
tot  0.000  0.000  0.519  0.000  0.000  0.003  0.000  0.010  0.000  0.532
 
band   9 # energy   -7.05175002 # occ.  1.00000000
 
ion      s     py     pz     px    dxy    dyz    dz2    dxz    dx2    tot
  1  0.000  0.135  0.000  0.045  0.032  0.000  0.000  0.000  0.095  0.307
  2  0.000  0.404  0.000  0.135  0.000  0.000  0.000  0.000  0.000  0.539
tot  0.000  0.539  0.000  0.180  0.032  0.000  0.000  0.000  0.095  0.846
 
band  10 # energy   -0.99185779 # occ.  0.00000000
 
ion      s     py     pz     px    dxy    dyz    dz2    dxz    dx2    tot
  1  0.206  0.009  0.000  0.027  0.003  0.000  0.038  0.000  0.001  0.285
  2  0.156  0.029  0.000  0.088  0.000  0.000  0.000  0.000  0.000  0.274
tot  0.363  0.038  0.000  0.115  0.003  0.000  0.038  0.000  0.001  0.559
 
band  11 # energy    1.07347061 # occ.  0.00000000
 
ion      s     py     pz     px    dxy    dyz    dz2    dxz    dx2    tot
  1  0.000  0.000  0.077  0.000  0.000  0.001  0.000  0.002  0.000  0.080
  2  0.000  0.000  0.160  0.000  0.000  0.000  0.000  0.000  0.000  0.160
tot  0.000  0.000  0.238  0.000  0.000  0.001  0.000  0.002  0.000  0.240
 
band  12 # energy    1.70456681 # occ.  0.00000000
 
ion      s     py     pz     px    dxy    dyz    dz2    dxz    dx2    tot
  1  0.012  0.000  0.000  0.001  0.000  0.000  0.000  0.000  0.000  0.013
  2  0.003  0.001  0.000  0.002  0.000  0.000  0.000  0.000  0.000  0.005
tot  0.015  0.001  0.000  0.003  0.000  0.000  0.000  0.000  0.000  0.018
 
band  13 # energy    2.19407378 # occ.  0.00000000
 
ion      s     py     pz     px    dxy    dyz    dz2    dxz    dx2    tot
  1  0.077  0.002  0.000  0.007  0.001  0.000  0.000  0.000  0.000  0.088
  2  0.016  0.003  0.000  0.009  0.000  0.000  0.000  0.000  0.000  0.027
tot  0.093  0.005  0.000  0.015  0.001  0.000  0.000  0.000  0.000  0.115
 
band  14 # energy    2.64562774 # occ.  0.00000000
 
ion      s     py     pz     px    dxy    dyz    dz2    dxz    dx2    tot
  1  0.000  0.000  0.043  0.000  0.000  0.000  0.000  0.001  0.000  0.044
  2  0.000  0.000  0.037  0.000  0.000  0.000  0.000  0.000  0.000  0.037
tot  0.000  0.000  0.080  0.000  0.000  0.000  0.000  0.001  0.000  0.081
 
band  15 # energy    3.89939089 # occ.  0.00000000
 
ion      s     py     pz     px    dxy    dyz    dz2    dxz    dx2    tot
  1  0.000  0.000  0.092  0.000  0.000  0.000  0.000  0.001  0.000  0.094
  2  0.000  0.000  0.040  0.000  0.000  0.000  0.000  0.000  0.000  0.040
tot  0.000  0.000  0.132  0.000  0.000  0.000  0.000  0.001  0.000  0.134
 
band  16 # energy    3.94483508 # occ.  0.00000000
 
ion      s     py     pz     px    dxy    dyz    dz2    dxz    dx2    tot
  1  0.057  0.007  0.000  0.022  0.006  0.000  0.003  0.000  0.002  0.097
  2  0.004  0.001  0.000  0.003  0.000  0.000  0.000  0.000  0.000  0.008
tot  0.060  0.008  0.000  0.025  0.006  0.000  0.003  0.000  0.002  0.105
 

 k-point    4 :    0.27272727 0.00000000 0.00000000     weight = 0.03305785

band   1 # energy  -20.73905060 # occ.  1.00000000
 
ion      s     py     pz     px    dxy    dyz    dz2    dxz    dx2    tot
  1  0.087  0.009  0.000  0.026  0.102  0.000  0.102  0.000  0.034  0.359
  2  0.464  0.000  0.000  0.000  0.000  0.000  0.000  0.000  0.000  0.465
tot  0.552  0.009  0.000  0.026  0.102  0.000  0.102  0.000  0.034  0.824
 
band   2 # energy  -17.98074708 # occ.  1.00000000
 
ion      s     py     pz     px    dxy    dyz    dz2    dxz    dx2    tot
  1  0.000  0.002  0.000  0.001  0.245  0.000  0.000  0.000  0.715  0.964
  2  0.000  0.020  0.000  0.006  0.000  0.000  0.000  0.000  0.000  0.027
tot  0.000  0.023  0.000  0.007  0.245  0.000  0.000  0.000  0.715  0.990
 
band   3 # energy  -17.97199733 # occ.  1.00000000
 
ion      s     py     pz     px    dxy    dyz    dz2    dxz    dx2    tot
  1  0.012  0.000  0.000  0.001  0.443  0.000  0.333  0.000  0.155  0.944
  2  0.004  0.007  0.000  0.023  0.000  0.000  0.000  0.000  0.000  0.034
tot  0.016  0.008  0.000  0.024  0.443  0.000  0.333  0.000  0.155  0.979
 
band   4 # energy  -17.56477190 # occ.  1.00000000
 
ion      s     py     pz     px    dxy    dyz    dz2    dxz    dx2    tot
  1  0.000  0.000  0.000  0.000  0.000  0.247  0.000  0.736  0.000  0.983
  2  0.000  0.000  0.004  0.000  0.000  0.000  0.000  0.000  0.000  0.004
tot  0.000  0.000  0.004  0.000  0.000  0.247  0.000  0.736  0.000  0.987
 
band   5 # energy  -17.49100872 # occ.  1.00000000
 
ion      s     py     pz     px    dxy    dyz    dz2    dxz    dx2    tot
  1  0.000  0.000  0.000  0.000  0.000  0.743  0.000  0.249  0.000  0.992
  2  0.000  0.000  0.000  0.000  0.000  0.000  0.000  0.000  0.000  0.000
tot  0.000  0.000  0.000  0.000  0.000  0.743  0.000  0.249  0.000  0.992
 
band   6 # energy  -16.76904729 # occ.  1.00000000
 
ion      s     py     pz     px    dxy    dyz    dz2    dxz    dx2    tot
  1  0.038  0.003  0.000  0.008  0.169  0.000  0.562  0.000  0.056  0.836
  2  0.095  0.001  0.000  0.002  0.000  0.000  0.000  0.000  0.000  0.097
tot  0.133  0.003  0.000  0.010  0.169  0.000  0.562  0.000  0.056  0.933
 
band   7 # energy   -9.64790033 # occ.  1.00000000
 
ion      s     py     pz     px    dxy    dyz    dz2    dxz    dx2    tot
  1  0.225  0.024  0.000  0.070  0.068  0.000  0.007  0.000  0.023  0.416
  2  0.045  0.086  0.000  0.259  0.000  0.000  0.000  0.000  0.000  0.390
tot  0.270  0.110  0.000  0.329  0.068  0.000  0.007  0.000  0.023  0.807
 
band   8 # energy   -7.54485511 # occ.  1.00000000
 
ion      s     py     pz     px    dxy    dyz    dz2    dxz    dx2    tot
  1  0.000  0.156  0.000  0.052  0.023  0.000  0.000  0.000  0.069  0.300
  2  0.000  0.392  0.000  0.131  0.000  0.000  0.000  0.000  0.000  0.523
tot  0.000  0.548  0.000  0.183  0.023  0.000  0.000  0.000  0.069  0.823
 
band   9 # energy   -7.20618043 # occ.  1.00000000
 
ion      s     py     pz     px    dxy    dyz    dz2    dxz    dx2    tot
  1  0.000  0.000  0.080  0.000  0.000  0.007  0.000  0.020  0.000  0.107
  2  0.000  0.000  0.448  0.000  0.000  0.000  0.000  0.000  0.000  0.448
tot  0.000  0.000  0.528  0.000  0.000  0.007  0.000  0.020  0.000  0.555
 
band  10 # energy   -0.18654903 # occ.  0.00000000
 
ion      s     py     pz     px    dxy    dyz    dz2    dxz    dx2    tot
  1  0.207  0.015  0.000  0.045  0.006  0.000  0.042  0.000  0.002  0.317
  2  0.123  0.032  0.000  0.095  0.000  0.000  0.000  0.000  0.000  0.249
tot  0.329  0.047  0.000  0.140  0.006  0.000  0.042  0.000  0.002  0.566
 
band  11 # energy    1.14873154 # occ.  0.00000000
 
ion      s     py     pz     px    dxy    dyz    dz2    dxz    dx2    tot
  1  0.000  0.000  0.178  0.000  0.000  0.002  0.000  0.005  0.000  0.185
  2  0.000  0.000  0.159  0.000  0.000  0.000  0.000  0.000  0.000  0.159
tot  0.000  0.000  0.338  0.000  0.000  0.002  0.000  0.005  0.000  0.344
 
band  12 # energy    2.48557225 # occ.  0.00000000
 
ion      s     py     pz     px    dxy    dyz    dz2    dxz    dx2    tot
  1  0.023  0.002  0.000  0.005  0.002  0.000  0.000  0.000  0.001  0.033
  2  0.003  0.001  0.000  0.002  0.000  0.000  0.000  0.000  0.000  0.005
tot  0.025  0.002  0.000  0.007  0.002  0.000  0.000  0.000  0.001  0.038
 
band  13 # energy    2.84819638 # occ.  0.00000000
 
ion      s     py     pz     px    dxy    dyz    dz2    dxz    dx2    tot
  1  0.078  0.008  0.000  0.023  0.010  0.000  0.002  0.000  0.003  0.125
  2  0.007  0.002  0.000  0.006  0.000  0.000  0.000  0.000  0.000  0.015
tot  0.085  0.010  0.000  0.029  0.010  0.000  0.002  0.000  0.003  0.140
 
band  14 # energy    3.25016363 # occ.  0.00000000
 
ion      s     py     pz     px    dxy    dyz    dz2    dxz    dx2    tot
  1  0.000  0.000  0.055  0.000  0.000  0.000  0.000  0.001  0.000  0.056
  2  0.000  0.000  0.012  0.000  0.000  0.000  0.000  0.000  0.000  0.012
tot  0.000  0.000  0.066  0.000  0.000  0.000  0.000  0.001  0.000  0.068
 
band  15 # energy    4.15938899 # occ.  0.00000000
 
ion      s     py     pz     px    dxy    dyz    dz2    dxz    dx2    tot
  1  0.053  0.032  0.000  0.096  0.047  0.000  0.014  0.000  0.016  0.257
  2  0.008  0.023  0.000  0.068  0.000  0.000  0.000  0.000  0.000  0.098
tot  0.061  0.055  0.000  0.164  0.047  0.000  0.014  0.000  0.016  0.356
 
band  16 # energy    4.40463387 # occ.  0.00000000
 
ion      s     py     pz     px    dxy    dyz    dz2    dxz    dx2    tot
  1  0.000  0.000  0.075  0.000  0.000  0.001  0.000  0.002  0.000  0.078
  2  0.000  0.000  0.006  0.000  0.000  0.000  0.000  0.000  0.000  0.006
tot  0.000  0.000  0.081  0.000  0.000  0.001  0.000  0.002  0.000  0.084
 

 k-point    5 :    0.36363636-0.00000000 0.00000000     weight = 0.03305785

band   1 # energy  -20.54562964 # occ.  1.00000000
 
ion      s     py     pz     px    dxy    dyz    dz2    dxz    dx2    tot
  1  0.048  0.012  0.000  0.036  0.174  0.000  0.061  0.000  0.058  0.389
  2  0.453  0.000  0.000  0.001  0.000  0.000  0.000  0.000  0.000  0.454
tot  0.501  0.012  0.000  0.037  0.174  0.000  0.061  0.000  0.058  0.843
 
band   2 # energy  -17.88077311 # occ.  1.00000000
 
ion      s     py     pz     px    dxy    dyz    dz2    dxz    dx2    tot
  1  0.000  0.002  0.000  0.001  0.243  0.000  0.000  0.000  0.726  0.973
  2  0.000  0.016  0.000  0.005  0.000  0.000  0.000  0.000  0.000  0.021
tot  0.000  0.018  0.000  0.006  0.243  0.000  0.000  0.000  0.726  0.994
 
band   3 # energy  -17.79153963 # occ.  1.00000000
 
ion      s     py     pz     px    dxy    dyz    dz2    dxz    dx2    tot
  1  0.010  0.001  0.000  0.002  0.239  0.000  0.623  0.000  0.081  0.955
  2  0.005  0.006  0.000  0.017  0.000  0.000  0.000  0.000  0.000  0.028
tot  0.015  0.006  0.000  0.019  0.239  0.000  0.623  0.000  0.081  0.983
 
band   4 # energy  -17.60115213 # occ.  1.00000000
 
ion      s     py     pz     px    dxy    dyz    dz2    dxz    dx2    tot
  1  0.000  0.000  0.000  0.000  0.000  0.245  0.000  0.734  0.000  0.979
  2  0.000  0.000  0.005  0.000  0.000  0.000  0.000  0.000  0.000  0.005
tot  0.000  0.000  0.005  0.000  0.000  0.245  0.000  0.734  0.000  0.984
 
band   5 # energy  -17.49620866 # occ.  1.00000000
 
ion      s     py     pz     px    dxy    dyz    dz2    dxz    dx2    tot
  1  0.000  0.000  0.000  0.000  0.000  0.743  0.000  0.249  0.000  0.992
  2  0.000  0.000  0.000  0.000  0.000  0.000  0.000  0.000  0.000  0.000
tot  0.000  0.000  0.000  0.000  0.000  0.743  0.000  0.249  0.000  0.992
 
band   6 # energy  -16.64720829 # occ.  1.00000000
 
ion      s     py     pz     px    dxy    dyz    dz2    dxz    dx2    tot
  1  0.029  0.006  0.000  0.019  0.320  0.000  0.300  0.000  0.107  0.781
  2  0.133  0.001  0.000  0.003  0.000  0.000  0.000  0.000  0.000  0.137
tot  0.161  0.007  0.000  0.022  0.320  0.000  0.300  0.000  0.107  0.918
 
band   7 # energy  -10.85503046 # occ.  1.00000000
 
ion      s     py     pz     px    dxy    dyz    dz2    dxz    dx2    tot
  1  0.300  0.018  0.000  0.053  0.038  0.000  0.019  0.000  0.013  0.441
  2  0.027  0.079  0.000  0.236  0.000  0.000  0.000  0.000  0.000  0.342
tot  0.327  0.096  0.000  0.289  0.038  0.000  0.019  0.000  0.013  0.783
 
band   8 # energy   -7.96819353 # occ.  1.00000000
 
ion      s     py     pz     px    dxy    dyz    dz2    dxz    dx2    tot
  1  0.000  0.172  0.000  0.057  0.016  0.000  0.000  0.000  0.047  0.291
  2  0.000  0.385  0.000  0.128  0.000  0.000  0.000  0.000  0.000  0.513
tot  0.000  0.556  0.000  0.186  0.016  0.000  0.000  0.000  0.047  0.805
 
band   9 # energy   -6.72553583 # occ.  1.00000000
 
ion      s     py     pz     px    dxy    dyz    dz2    dxz    dx2    tot
  1  0.000  0.000  0.050  0.000  0.000  0.010  0.000  0.031  0.000  0.091
  2  0.000  0.000  0.490  0.000  0.000  0.000  0.000  0.000  0.000  0.490
tot  0.000  0.000  0.540  0.000  0.000  0.010  0.000  0.031  0.000  0.581
 
band  10 # energy    0.31441383 # occ.  0.00000000
 
ion      s     py     pz     px    dxy    dyz    dz2    dxz    dx2    tot
  1  0.260  0.021  0.000  0.064  0.025  0.000  0.038  0.000  0.008  0.417
  2  0.099  0.025  0.000  0.076  0.000  0.000  0.000  0.000  0.000  0.201
tot  0.360  0.047  0.000  0.140  0.025  0.000  0.038  0.000  0.008  0.617
 
band  11 # energy    0.96769785 # occ.  0.00000000
 
ion      s     py     pz     px    dxy    dyz    dz2    dxz    dx2    tot
  1  0.000  0.000  0.302  0.000  0.000  0.003  0.000  0.010  0.000  0.316
  2  0.000  0.000  0.096  0.000  0.000  0.000  0.000  0.000  0.000  0.096
tot  0.000  0.000  0.398  0.000  0.000  0.003  0.000  0.010  0.000  0.411
 
band  12 # energy    3.28866020 # occ.  0.00000000
 
ion      s     py     pz     px    dxy    dyz    dz2    dxz    dx2    tot
  1  0.064  0.011  0.000  0.032  0.025  0.000  0.013  0.000  0.008  0.152
  2  0.005  0.013  0.000  0.038  0.000  0.000  0.000  0.000  0.000  0.056
tot  0.069  0.023  0.000  0.070  0.025  0.000  0.013  0.000  0.008  0.208
 
band  13 # energy    3.71940134 # occ.  0.00000000
 
ion      s     py     pz     px    dxy    dyz    dz2    dxz    dx2    tot
  1  0.006  0.002  0.000  0.005  0.004  0.000  0.003  0.000  0.001  0.021
  2  0.001  0.003  0.000  0.009  0.000  0.000  0.000  0.000  0.000  0.013
tot  0.007  0.005  0.000  0.015  0.004  0.000  0.003  0.000  0.001  0.035
 
band  14 # energy    4.15466393 # occ.  0.00000000
 
ion      s     py     pz     px    dxy    dyz    dz2    dxz    dx2    tot
  1  0.000  0.000  0.048  0.000  0.000  0.001  0.000  0.002  0.000  0.051
  2  0.000  0.000  0.001  0.000  0.000  0.000  0.000  0.000  0.000  0.001
tot  0.000  0.000  0.049  0.000  0.000  0.001  0.000  0.002  0.000  0.052
 
band  15 # energy    4.75698771 # occ.  0.00000000
 
ion      s     py     pz     px    dxy    dyz    dz2    dxz    dx2    tot
  1  0.024  0.013  0.000  0.039  0.022  0.000  0.015  0.000  0.007  0.120
  2  0.010  0.035  0.000  0.105  0.000  0.000  0.000  0.000  0.000  0.151
tot  0.034  0.048  0.000  0.144  0.022  0.000  0.015  0.000  0.007  0.271
 
band  16 # energy    5.25202232 # occ.  0.00000000
 
ion      s     py     pz     px    dxy    dyz    dz2    dxz    dx2    tot
  1  0.000  0.000  0.042  0.000  0.000  0.001  0.000  0.003  0.000  0.046
  2  0.000  0.000  0.004  0.000  0.000  0.000  0.000  0.000  0.000  0.004
tot  0.000  0.000  0.046  0.000  0.000  0.001  0.000  0.003  0.000  0.050
 

 k-point    6 :    0.45454545 0.00000000 0.00000000     weight = 0.03305785

band   1 # energy  -20.44028837 # occ.  1.00000000
 
ion      s     py     pz     px    dxy    dyz    dz2    dxz    dx2    tot
  1  0.024  0.014  0.000  0.041  0.225  0.000  0.032  0.000  0.075  0.411
  2  0.443  0.000  0.000  0.001  0.000  0.000  0.000  0.000  0.000  0.444
tot  0.467  0.014  0.000  0.042  0.225  0.000  0.032  0.000  0.075  0.855
 
band   2 # energy  -17.81918191 # occ.  1.00000000
 
ion      s     py     pz     px    dxy    dyz    dz2    dxz    dx2    tot
  1  0.000  0.002  0.000  0.001  0.244  0.000  0.000  0.000  0.731  0.978
  2  0.000  0.013  0.000  0.004  0.000  0.000  0.000  0.000  0.000  0.017
tot  0.000  0.015  0.000  0.005  0.244  0.000  0.000  0.000  0.731  0.996
 
band   3 # energy  -17.65899362 # occ.  1.00000000
 
ion      s     py     pz     px    dxy    dyz    dz2    dxz    dx2    tot
  1  0.006  0.000  0.000  0.001  0.076  0.000  0.864  0.000  0.026  0.974
  2  0.001  0.004  0.000  0.013  0.000  0.000  0.000  0.000  0.000  0.018
tot  0.007  0.005  0.000  0.014  0.076  0.000  0.864  0.000  0.026  0.992
 
band   4 # energy  -17.62223407 # occ.  1.00000000
 
ion      s     py     pz     px    dxy    dyz    dz2    dxz    dx2    tot
  1  0.000  0.000  0.000  0.000  0.000  0.245  0.000  0.732  0.000  0.977
  2  0.000  0.000  0.006  0.000  0.000  0.000  0.000  0.000  0.000  0.006