<?xml version="1.0" encoding="ISO-8859-1"?>
<modeling>
 <generator>
  <i name="program" type="string">vasp </i>
  <i name="version" type="string">5.3.5  </i>
  <i name="subversion" type="string">31Mar14 (build Jul 11 2014 22:06:56) complex                          parallel </i>
  <i name="platform" type="string">LinuxIFC </i>
  <i name="date" type="string">2020 11 26 </i>
  <i name="time" type="string">20:05:59 </i>
 </generator>
 <incar>
  <i type="int" name="ISTART">     1</i>
  <i type="string" name="PREC">accurate</i>
  <i type="string" name="ALGO"> Normal</i>
  <i type="int" name="ISPIN">     2</i>
  <i name="AMIN">      0.01000000</i>
  <i type="int" name="ICHARG">     0</i>
  <i type="int" name="NELM">   400</i>
  <i type="int" name="IBRION">    -1</i>
  <i name="EDIFF">      0.00010000</i>
  <i type="int" name="NSW">     0</i>
  <i type="int" name="ISIF">     3</i>
  <i name="ENCUT">    520.00000000</i>
  <i type="logical" name="LREAL"> F  </i>
  <i type="int" name="ISMEAR">    -5</i>
  <i name="SIGMA">      0.05000000</i>
  <i type="logical" name="LWAVE"> F  </i>
  <i type="logical" name="LCHARG"> T  </i>
  <i type="logical" name="LVHAR"> T  </i>
  <i type="logical" name="LORBIT"> F  </i>
  <i type="logical" name="LAECHG"> F  </i>
  <i type="int" name="NELM">   400</i>
 </incar>
 <kpoints>
  <generation param="Gamma">
   <v type="int" name="divisions">      11       11        1 </v>
   <v name="usershift">      0.00000000       0.00000000       0.00000000 </v>
   <v name="genvec1">      0.09090909      -0.00000000       0.00000000 </v>
   <v name="genvec2">      0.00000000       0.09090909       0.00000000 </v>
   <v name="genvec3">      0.00000000       0.00000000       1.00000000 </v>
   <v name="shift">      0.00000000       0.00000000       0.00000000 </v>
  </generation>
  <varray name="kpointlist" >
   <v>       0.00000000       0.00000000       0.00000000 </v>
   <v>       0.09090909      -0.00000000       0.00000000 </v>
   <v>       0.18181818      -0.00000000       0.00000000 </v>
   <v>       0.27272727       0.00000000       0.00000000 </v>
   <v>       0.36363636      -0.00000000       0.00000000 </v>
   <v>       0.45454545       0.00000000       0.00000000 </v>
   <v>       0.00000000       0.09090909       0.00000000 </v>
   <v>       0.09090909       0.09090909       0.00000000 </v>
   <v>       0.18181818       0.09090909       0.00000000 </v>
   <v>       0.27272727       0.09090909       0.00000000 </v>
   <v>       0.36363636       0.09090909       0.00000000 </v>
   <v>       0.45454545       0.09090909       0.00000000 </v>
   <v>      -0.45454545       0.09090909       0.00000000 </v>
   <v>      -0.36363636       0.09090909       0.00000000 </v>
   <v>      -0.27272727       0.09090909       0.00000000 </v>
   <v>      -0.18181818       0.09090909       0.00000000 </v>
   <v>       0.00000000       0.18181818       0.00000000 </v>
   <v>       0.09090909       0.18181818       0.00000000 </v>
   <v>       0.18181818       0.18181818       0.00000000 </v>
   <v>       0.27272727       0.18181818       0.00000000 </v>
   <v>       0.36363636       0.18181818       0.00000000 </v>
   <v>       0.45454545       0.18181818       0.00000000 </v>
   <v>      -0.45454545       0.18181818       0.00000000 </v>
   <v>      -0.36363636       0.18181818       0.00000000 </v>
   <v>       0.00000000       0.27272727       0.00000000 </v>
   <v>       0.09090909       0.27272727       0.00000000 </v>
   <v>       0.18181818       0.27272727       0.00000000 </v>
   <v>       0.27272727       0.27272727       0.00000000 </v>
   <v>       0.36363636       0.27272727       0.00000000 </v>
   <v>       0.45454545       0.27272727       0.00000000 </v>
   <v>       0.00000000       0.36363636       0.00000000 </v>
   <v>       0.09090909       0.36363636       0.00000000 </v>
   <v>       0.18181818       0.36363636       0.00000000 </v>
   <v>       0.27272727       0.36363636       0.00000000 </v>
   <v>       0.00000000       0.45454545       0.00000000 </v>
   <v>       0.09090909       0.45454545       0.00000000 </v>
  </varray>
  <varray name="weights" >
   <v>       0.00826446 </v>
   <v>       0.03305785 </v>
   <v>       0.03305785 </v>
   <v>       0.03305785 </v>
   <v>       0.03305785 </v>
   <v>       0.03305785 </v>
   <v>       0.01652893 </v>
   <v>       0.03305785 </v>
   <v>       0.03305785 </v>
   <v>       0.03305785 </v>
   <v>       0.03305785 </v>
   <v>       0.03305785 </v>
   <v>       0.03305785 </v>
   <v>       0.03305785 </v>
   <v>       0.03305785 </v>
   <v>       0.01652893 </v>
   <v>       0.01652893 </v>
   <v>       0.03305785 </v>
   <v>       0.03305785 </v>
   <v>       0.03305785 </v>
   <v>       0.03305785 </v>
   <v>       0.03305785 </v>
   <v>       0.03305785 </v>
   <v>       0.01652893 </v>
   <v>       0.01652893 </v>
   <v>       0.03305785 </v>
   <v>       0.03305785 </v>
   <v>       0.03305785 </v>
   <v>       0.03305785 </v>
   <v>       0.01652893 </v>
   <v>       0.01652893 </v>
   <v>       0.03305785 </v>
   <v>       0.03305785 </v>
   <v>       0.01652893 </v>
   <v>       0.01652893 </v>
   <v>       0.01652893 </v>
  </varray>
  <varray name="tetrahedronlist"  type="int" >
   <v type="int" >        4        2        7        7        8 </v>
   <v type="int" >        4        1        2        7        7 </v>
   <v type="int" >        4        1        1        2        7 </v>
   <v type="int" >        4        2        7        8        8 </v>
   <v type="int" >        4        2        2        7        8 </v>
   <v type="int" >        4        1        2        2        7 </v>
   <v type="int" >        4        3        8        8        9 </v>
   <v type="int" >        4        2        3        8        8 </v>
   <v type="int" >        4        2        2        3        8 </v>
   <v type="int" >        4        3        8        9        9 </v>
   <v type="int" >        4        3        3        8        9 </v>
   <v type="int" >        4        2        3        3        8 </v>
   <v type="int" >        4        4        9        9       10 </v>
   <v type="int" >        4        3        4        9        9 </v>
   <v type="int" >        4        3        3        4        9 </v>
   <v type="int" >        4        4        9       10       10 </v>
   <v type="int" >        4        4        4        9       10 </v>
   <v type="int" >        4        3        4        4        9 </v>
   <v type="int" >        4        5       10       10       11 </v>
   <v type="int" >        4        4        5       10       10 </v>
   <v type="int" >        4        4        4        5       10 </v>
   <v type="int" >        4        5       10       11       11 </v>
   <v type="int" >        4        5        5       10       11 </v>
   <v type="int" >        4        4        5        5       10 </v>
   <v type="int" >        4        6       11       11       12 </v>
   <v type="int" >        4        5        6       11       11 </v>
   <v type="int" >        4        5        5        6       11 </v>
   <v type="int" >        4        6       11       12       12 </v>
   <v type="int" >        4        6        6       11       12 </v>
   <v type="int" >        4        5        6        6       11 </v>
   <v type="int" >        4        6       12       12       13 </v>
   <v type="int" >        4        6        6       12       12 </v>
   <v type="int" >        8        6        6        6       12 </v>
   <v type="int" >        4        6       12       13       13 </v>
   <v type="int" >        4        6        6       12       13 </v>
   <v type="int" >        4        5       13       13       14 </v>
   <v type="int" >        4        5        6       13       13 </v>
   <v type="int" >        4        5        6        6       13 </v>
   <v type="int" >        4        5       13       14       14 </v>
   <v type="int" >        4        5        5       13       14 </v>
   <v type="int" >        4        5        5        6       13 </v>
   <v type="int" >        4        4       14       14       15 </v>
   <v type="int" >        4        4        5       14       14 </v>
   <v type="int" >        4        4        5        5       14 </v>
   <v type="int" >        4        4       14       15       15 </v>
   <v type="int" >        4        4        4       14       15 </v>
   <v type="int" >        4        4        4        5       14 </v>
   <v type="int" >        4        3       15       15       16 </v>
   <v type="int" >        4        3        4       15       15 </v>
   <v type="int" >        4        3        4        4       15 </v>
   <v type="int" >        4        3       15       16       16 </v>
   <v type="int" >        4        3        3       15       16 </v>
   <v type="int" >        4        3        3        4       15 </v>
   <v type="int" >        2        2        2       16       16 </v>
   <v type="int" >        4        2        3       16       16 </v>
   <v type="int" >        4        2        3        3       16 </v>
   <v type="int" >        4        2        2        2       16 </v>
   <v type="int" >        4        2        2        3       16 </v>
   <v type="int" >        4        1        2        2        2 </v>
   <v type="int" >        2        1        1        2        2 </v>
   <v type="int" >        4        8       17       17       18 </v>
   <v type="int" >        4        7        8       17       17 </v>
   <v type="int" >        4        7        7        8       17 </v>
   <v type="int" >        4        8       17       18       18 </v>
   <v type="int" >        4        8        8       17       18 </v>
   <v type="int" >        4        7        8        8       17 </v>
   <v type="int" >        4        9       18       18       19 </v>
   <v type="int" >        4        8        9       18       18 </v>
   <v type="int" >        4        8        8        9       18 </v>
   <v type="int" >        4        9       18       19       19 </v>
   <v type="int" >        4        9        9       18       19 </v>
   <v type="int" >        4        8        9        9       18 </v>
   <v type="int" >        4       10       19       19       20 </v>
   <v type="int" >        4        9       10       19       19 </v>
   <v type="int" >        4        9        9       10       19 </v>
   <v type="int" >        4       10       19       20       20 </v>
   <v type="int" >        4       10       10       19       20 </v>
   <v type="int" >        4        9       10       10       19 </v>
   <v type="int" >        4       11       20       20       21 </v>
   <v type="int" >        4       10       11       20       20 </v>
   <v type="int" >        4       10       10       11       20 </v>
   <v type="int" >        4       11       20       21       21 </v>
   <v type="int" >        4       11       11       20       21 </v>
   <v type="int" >        4       10       11       11       20 </v>
   <v type="int" >        4       12       21       21       22 </v>
   <v type="int" >        4       11       12       21       21 </v>
   <v type="int" >        4       11       11       12       21 </v>
   <v type="int" >        4       12       21       22       22 </v>
   <v type="int" >        4       12       12       21       22 </v>
   <v type="int" >        4       11       12       12       21 </v>
   <v type="int" >        4       13       22       22       23 </v>
   <v type="int" >        4       12       13       22       22 </v>
   <v type="int" >        4       12       12       13       22 </v>
   <v type="int" >        4       13       22       23       23 </v>
   <v type="int" >        4       13       13       22       23 </v>
   <v type="int" >        4       12       13       13       22 </v>
   <v type="int" >        4       14       23       23       24 </v>
   <v type="int" >        4       13       14       23       23 </v>
   <v type="int" >        4       13       13       14       23 </v>
   <v type="int" >        4       14       23       24       24 </v>
   <v type="int" >        4       14       14       23       24 </v>
   <v type="int" >        4       13       14       14       23 </v>
   <v type="int" >        2       15       15       24       24 </v>
   <v type="int" >        4       14       15       24       24 </v>
   <v type="int" >        4       14       14       15       24 </v>
   <v type="int" >        4       15       15       15       24 </v>
   <v type="int" >        4       14       15       15       24 </v>
   <v type="int" >        4       15       15       15       16 </v>
   <v type="int" >        2       15       15       16       16 </v>
   <v type="int" >        4       18       25       25       26 </v>
   <v type="int" >        4       17       18       25       25 </v>
   <v type="int" >        4       17       17       18       25 </v>
   <v type="int" >        4       18       25       26       26 </v>
   <v type="int" >        4       18       18       25       26 </v>
   <v type="int" >        4       17       18       18       25 </v>
   <v type="int" >        4       19       26       26       27 </v>
   <v type="int" >        4       18       19       26       26 </v>
   <v type="int" >        4       18       18       19       26 </v>
   <v type="int" >        4       19       26       27       27 </v>
   <v type="int" >        4       19       19       26       27 </v>
   <v type="int" >        4       18       19       19       26 </v>
   <v type="int" >        4       20       27       27       28 </v>
   <v type="int" >        4       19       20       27       27 </v>
   <v type="int" >        4       19       19       20       27 </v>
   <v type="int" >        4       20       27       28       28 </v>
   <v type="int" >        4       20       20       27       28 </v>
   <v type="int" >        4       19       20       20       27 </v>
   <v type="int" >        4       21       28       28       29 </v>
   <v type="int" >        4       20       21       28       28 </v>
   <v type="int" >        4       20       20       21       28 </v>
   <v type="int" >        4       21       28       29       29 </v>
   <v type="int" >        4       21       21       28       29 </v>
   <v type="int" >        4       20       21       21       28 </v>
   <v type="int" >        4       22       29       29       30 </v>
   <v type="int" >        4       21       22       29       29 </v>
   <v type="int" >        4       21       21       22       29 </v>
   <v type="int" >        4       22       29       30       30 </v>
   <v type="int" >        4       22       22       29       30 </v>
   <v type="int" >        4       21       22       22       29 </v>
   <v type="int" >        2       23       23       30       30 </v>
   <v type="int" >        4       22       23       30       30 </v>
   <v type="int" >        4       22       22       23       30 </v>
   <v type="int" >        4       23       23       23       30 </v>
   <v type="int" >        4       22       23       23       30 </v>
   <v type="int" >        4       23       23       23       24 </v>
   <v type="int" >        2       23       23       24       24 </v>
   <v type="int" >        4       26       31       31       32 </v>
   <v type="int" >        4       25       26       31       31 </v>
   <v type="int" >        4       25       25       26       31 </v>
   <v type="int" >        4       26       31       32       32 </v>
   <v type="int" >        4       26       26       31       32 </v>
   <v type="int" >        4       25       26       26       31 </v>
   <v type="int" >        4       27       32       32       33 </v>
   <v type="int" >        4       26       27       32       32 </v>
   <v type="int" >        4       26       26       27       32 </v>
   <v type="int" >        4       27       32       33       33 </v>
   <v type="int" >        4       27       27       32       33 </v>
   <v type="int" >        4       26       27       27       32 </v>
   <v type="int" >        4       28       33       33       34 </v>
   <v type="int" >        4       27       28       33       33 </v>
   <v type="int" >        4       27       27       28       33 </v>
   <v type="int" >        4       28       33       34       34 </v>
   <v type="int" >        4       28       28       33       34 </v>
   <v type="int" >        4       27       28       28       33 </v>
   <v type="int" >        2       29       29       34       34 </v>
   <v type="int" >        4       28       29       34       34 </v>
   <v type="int" >        4       28       28       29       34 </v>
   <v type="int" >        4       29       29       29       34 </v>
   <v type="int" >        4       28       29       29       34 </v>
   <v type="int" >        4       29       29       29       30 </v>
   <v type="int" >        2       29       29       30       30 </v>
   <v type="int" >        4       32       35       35       36 </v>
   <v type="int" >        4       31       32       35       35 </v>
   <v type="int" >        4       31       31       32       35 </v>
   <v type="int" >        4       32       35       36       36 </v>
   <v type="int" >        4       32       32       35       36 </v>
   <v type="int" >        4       31       32       32       35 </v>
   <v type="int" >        2       33       33       36       36 </v>
   <v type="int" >        4       32       33       36       36 </v>
   <v type="int" >        4       32       32       33       36 </v>
   <v type="int" >        4       33       33       33       36 </v>
   <v type="int" >        4       32       33       33       36 </v>
   <v type="int" >        4       33       33       33       34 </v>
   <v type="int" >        2       33       33       34       34 </v>
   <v type="int" >        4       35       35       35       36 </v>
   <v type="int" >        2       35       35       36       36 </v>
  </varray>
  <i name="volumeweight">      0.00137741 </i>
 </kpoints>
 <parameters>
  <separator name="general" >
   <i type="string" name="SYSTEM">unknown system</i>
   <i type="logical" name="LCOMPAT"> F  </i>
  </separator>
  <separator name="electronic" >
   <i type="string" name="PREC">accura</i>
   <i name="ENMAX">    520.00000000</i>
   <i name="ENAUG">    627.11200000</i>
   <i name="EDIFF">      0.00010000</i>
   <i type="int" name="IALGO">    38</i>
   <i type="int" name="IWAVPR">    10</i>
   <i type="int" name="NBANDS">    16</i>
   <i name="NELECT">     18.00000000</i>
   <i type="int" name="TURBO">     0</i>
   <i type="int" name="IRESTART">     0</i>
   <i type="int" name="NREBOOT">     0</i>
   <i type="int" name="NMIN">     0</i>
   <i name="EREF">      0.00000000</i>
   <separator name="electronic smearing" >
    <i type="int" name="ISMEAR">    -5</i>
    <i name="SIGMA">      0.05000000</i>
    <i name="KSPACING">      0.50000000</i>
    <i type="logical" name="KGAMMA"> T  </i>
   </separator>
   <separator name="electronic projectors" >
    <i type="logical" name="LREAL"> F  </i>
    <v name="ROPT">      0.00000000      0.00000000</v>
    <i type="int" name="LMAXPAW">  -100</i>
    <i type="int" name="LMAXMIX">     2</i>
    <i type="logical" name="NLSPLINE"> F  </i>
   </separator>
   <separator name="electronic startup" >
    <i type="int" name="ISTART">     0</i>
    <i type="int" name="ICHARG">     2</i>
    <i type="int" name="INIWAV">     1</i>
   </separator>
   <separator name="electronic spin" >
    <i type="int" name="ISPIN">     2</i>
    <i type="logical" name="LNONCOLLINEAR"> F  </i>
    <v name="MAGMOM">      1.00000000      1.00000000</v>
    <i name="NUPDOWN">     -1.00000000</i>
    <i type="logical" name="LSORBIT"> F  </i>
    <v name="SAXIS">      0.00000000      0.00000000      1.00000000</v>
    <i type="logical" name="LSPIRAL"> F  </i>
    <v name="QSPIRAL">      0.00000000      0.00000000      0.00000000</v>
    <i type="logical" name="LZEROZ"> F  </i>
   </separator>
   <separator name="electronic exchange-correlation" >
    <i type="logical" name="LASPH"> F  </i>
    <i type="logical" name="LMETAGGA"> F  </i>
   </separator>
   <separator name="electronic convergence" >
    <i type="int" name="NELM">   400</i>
    <i type="int" name="NELMDL">     0</i>
    <i type="int" name="NELMIN">     2</i>
    <i name="ENINI">    520.00000000</i>
    <separator name="electronic convergence detail" >
     <i type="logical" name="LDIAG"> T  </i>
     <i type="logical" name="LSUBROT"> F  </i>
     <i name="WEIMIN">      0.00000000</i>
     <i name="EBREAK">      0.00000156</i>
     <i name="DEPER">      0.30000000</i>
     <i type="int" name="NRMM">     4</i>
     <i name="TIME">      0.40000000</i>
    </separator>
   </separator>
   <separator name="electronic mixer" >
    <i name="AMIX">      0.40000000</i>
    <i name="BMIX">      1.00000000</i>
    <i name="AMIN">      0.01000000</i>
    <i name="AMIX_MAG">      1.60000000</i>
    <i name="BMIX_MAG">      1.00000000</i>
    <separator name="electronic mixer details" >
     <i type="int" name="IMIX">     4</i>
     <i type="int" name="MAXMIX">   -45</i>
     <i name="WC">    100.00000000</i>
     <i type="int" name="INIMIX">     1</i>
     <i type="int" name="MIXPRE">     1</i>
     <i type="int" name="MREMOVE">     5</i>
    </separator>
   </separator>
   <separator name="electronic dipolcorrection" >
    <i type="logical" name="LDIPOL"> F  </i>
    <i type="logical" name="LMONO"> F  </i>
    <i type="int" name="IDIPOL">     0</i>
    <i name="EPSILON">      1.00000000</i>
    <v name="DIPOL">   -100.00000000   -100.00000000   -100.00000000</v>
    <i name="EFIELD">      0.00000000</i>
   </separator>
  </separator>
  <separator name="grids" >
   <i type="int" name="NGX">    24</i>
   <i type="int" name="NGY">    24</i>
   <i type="int" name="NGZ">   150</i>
   <i type="int" name="NGXF">    48</i>
   <i type="int" name="NGYF">    48</i>
   <i type="int" name="NGZF">   300</i>
   <i type="logical" name="ADDGRID"> F  </i>
  </separator>
  <separator name="ionic" >
   <i type="int" name="NSW">     0</i>
   <i type="int" name="IBRION">    -1</i>
   <i type="int" name="ISIF">     3</i>
   <i name="PSTRESS">      0.00000000</i>
   <i name="EDIFFG">      0.00100000</i>
   <i type="int" name="NFREE">     0</i>
   <i name="POTIM">      0.50000000</i>
   <i name="SMASS">     -3.00000000</i>
   <i name="SCALEE">      1.00000000</i>
  </separator>
  <separator name="ionic md" >
   <i name="TEBEG">      0.00010000</i>
   <i name="TEEND">      0.00010000</i>
   <i type="int" name="NBLOCK">     1</i>
   <i type="int" name="KBLOCK">     1</i>
   <i type="int" name="NPACO">   256</i>
   <i name="APACO">     16.00000000</i>
  </separator>
  <separator name="symmetry" >
   <i type="int" name="ISYM">     2</i>
   <i name="SYMPREC">      0.00001000</i>
  </separator>
  <separator name="dos" >
   <i type="logical" name="LORBIT"> F  </i>
   <v name="RWIGS">     -1.00000000     -1.00000000</v>
   <i type="int" name="NEDOS">   301</i>
   <i name="EMIN">     10.00000000</i>
   <i name="EMAX">    -10.00000000</i>
   <i name="EFERMI">      0.00000000</i>
  </separator>
  <separator name="writing" >
   <i type="int" name="NWRITE">     2</i>
   <i type="logical" name="LWAVE"> F  </i>
   <i type="logical" name="LCHARG"> T  </i>
   <i type="logical" name="LPARD"> F  </i>
   <i type="logical" name="LVTOT"> F  </i>
   <i type="logical" name="LVHAR"> T  </i>
   <i type="logical" name="LELF"> F  </i>
   <i type="logical" name="LOPTICS"> F  </i>
   <v name="STM">      0.00000000      0.00000000      0.00000000      0.00000000      0.00000000      0.00000000      0.00000000</v>
  </separator>
  <separator name="performance" >
   <i type="int" name="NPAR">     4</i>
   <i type="int" name="NSIM">     4</i>
   <i type="int" name="NBLK">    -1</i>
   <i type="logical" name="LPLANE"> T  </i>
   <i type="logical" name="LSCALAPACK"> T  </i>
   <i type="logical" name="LSCAAWARE"> F  </i>
   <i type="logical" name="LSCALU"> F  </i>
   <i type="logical" name="LASYNC"> F  </i>
   <i type="logical" name="LORBITALREAL"> F  </i>
  </separator>
  <separator name="miscellaneous" >
   <i type="int" name="IDIOT">     3</i>
   <i type="logical" name="LMUSIC"> F  </i>
   <v name="POMASS">     69.72300000     14.00100000</v>
   <v name="DARWINR">      0.00000000      0.00000000</v>
   <v name="DARWINV">      1.00000000      1.00000000</v>
   <i type="logical" name="LCORR"> T  </i>
  </separator>
  <i type="logical" name="GGA_COMPAT"> T  </i>
  <i type="logical" name="LBERRY"> F  </i>
  <i type="int" name="ICORELEVEL">     0</i>
  <i type="logical" name="LDAU"> F  </i>
  <i type="int" name="I_CONSTRAINED_M">     0</i>
  <separator name="electronic exchange-correlation" >
   <i type="string" name="GGA">--</i>
   <i type="int" name="VOSKOWN">     0</i>
   <i type="logical" name="LHFCALC"> F  </i>
   <i type="string" name="PRECFOCK"></i>
   <i type="logical" name="LSYMGRAD"> F  </i>
   <i type="logical" name="LHFONE"> F  </i>
   <i type="logical" name="LRHFCALC"> F  </i>
   <i type="logical" name="LTHOMAS"> F  </i>
   <i type="logical" name="LMODELHF"> F  </i>
   <i name="ENCUT4O">     -1.00000000</i>
   <i type="int" name="EXXOEP">     0</i>
   <i type="int" name="FOURORBIT">     0</i>
   <i name="AEXX">      0.00000000</i>
   <i name="HFALPHA">      0.00000000</i>
   <i name="MCALPHA">      0.00000000</i>
   <i name="ALDAX">      1.00000000</i>
   <i name="AGGAX">      1.00000000</i>
   <i name="ALDAC">      1.00000000</i>
   <i name="AGGAC">      1.00000000</i>
   <i type="int" name="NKREDX">     1</i>
   <i type="int" name="NKREDY">     1</i>
   <i type="int" name="NKREDZ">     1</i>
   <i type="logical" name="SHIFTRED"> F  </i>
   <i type="logical" name="ODDONLY"> F  </i>
   <i type="logical" name="EVENONLY"> F  </i>
   <i type="int" name="LMAXFOCK">     0</i>
   <i type="int" name="NMAXFOCKAE">     0</i>
   <i type="logical" name="LFOCKAEDFT"> F  </i>
   <i name="HFSCREEN">      0.00000000</i>
   <i name="HFSCREENC">      0.00000000</i>
   <i type="int" name="NBANDSGWLOW">     0</i>
  </separator>
  <separator name="vdW DFT" >
   <i type="logical" name="LUSE_VDW"> F  </i>
   <i name="Zab_VDW">     -0.84910000</i>
   <i name="PARAM1">      0.12340000</i>
   <i name="PARAM2">      1.00000000</i>
   <i name="PARAM3">      0.00000000</i>
  </separator>
  <separator name="model GW" >
   <i type="int" name="MODEL_GW">     0</i>
   <i name="MODEL_EPS0">     53.60112506</i>
   <i name="MODEL_ALPHA">      1.00000000</i>
  </separator>
  <separator name="linear response parameters" >
   <i type="logical" name="LEPSILON"> F  </i>
   <i type="logical" name="LRPA"> F  </i>
   <i type="logical" name="LNABLA"> F  </i>
   <i type="logical" name="LVEL"> F  </i>
   <i type="int" name="KINTER">     0</i>
   <i name="CSHIFT">      0.10000000</i>
   <i name="OMEGAMAX">     -1.00000000</i>
   <i name="DEG_THRESHOLD">      0.00200000</i>
  </separator>
  <separator name="orbital magnetization" >
   <i type="logical" name="NUCIND"> F  </i>
   <v name="MAGPOS">      0.00000000      0.00000000      0.00000000</v>
   <i type="logical" name="LNICSALL"> T  </i>
   <i type="logical" name="ORBITALMAG"> F  </i>
   <i type="logical" name="LMAGBLOCH"> F  </i>
   <i type="logical" name="LCHIMAG"> F  </i>
   <i type="logical" name="LGAUGE"> T  </i>
   <i type="int" name="MAGATOM">     0</i>
   <v name="MAGDIPOL">      0.00000000      0.00000000      0.00000000</v>
   <v name="AVECCONST">      0.00000000      0.00000000      0.00000000</v>
  </separator>
  <separator name="response functions" >
   <i type="logical" name="LADDER"> F  </i>
   <i type="logical" name="LFXC"> F  </i>
   <i type="logical" name="LHARTREE"> T  </i>
   <i type="int" name="IBSE">     0</i>
   <i type="logical" name="LTCTE"> F  </i>
   <i type="logical" name="LTETE"> F  </i>
   <i type="logical" name="LTRIPLET"> F  </i>
   <i type="logical" name="LFXCEPS"> F  </i>
   <i type="logical" name="LFXHEG"> F  </i>
   <i type="logical" name="L2ORDER"> F  </i>
   <i type="logical" name="LUSEW"> F  </i>
   <i name="ENCUTGW">     -2.00000000</i>
   <i name="ENCUTGWSOFT">     -2.00000000</i>
   <i name="ENCUTLF">     -1.00000000</i>
   <i type="int" name="LMAXMP2">    -1</i>
   <i name="SCISSOR">      0.00000000</i>
   <i type="int" name="NOMEGA">     0</i>
   <i type="int" name="NOMEGAR">     0</i>
   <i type="int" name="NBANDSGW">    -1</i>
   <i type="int" name="NBANDSO">    -1</i>
   <i type="int" name="NBANDSV">    -1</i>
   <i type="int" name="NELM">   400</i>
   <i type="int" name="DIM">     3</i>
   <i type="int" name="ANTIRES">     0</i>
   <i name="OMEGAMAX">    -30.00000000</i>
   <i name="OMEGAMIN">    -30.00000000</i>
   <i name="OMEGATL">   -200.00000000</i>
   <i type="int" name="OMEGAGRID">     0</i>
   <i name="CSHIFT">     -0.10000000</i>
   <i type="logical" name="SELFENERGY"> F  </i>
   <i type="logical" name="LSPECTRAL"> F  </i>
   <i type="logical" name="ODDONLYGW"> F  </i>
   <i type="logical" name="EVENONLYGW"> F  </i>
   <i type="int" name="NKREDLFX">     1</i>
   <i type="int" name="NKREDLFY">     1</i>
   <i type="int" name="NKREDLFZ">     1</i>
   <i type="int" name="MAXMEM">  1800</i>
   <i type="int" name="TELESCOPE">     0</i>
   <i type="int" name="TAUPAR">     1</i>
  </separator>
  <separator name="External order field" >
   <i name="OFIELD_KAPPA">      0.00000000</i>
   <v name="OFIELD_K">      0.00000000      0.00000000      0.00000000</v>
   <i name="OFIELD_Q6_NEAR">      0.00000000</i>
   <i name="OFIELD_Q6_FAR">      0.00000000</i>
   <i name="OFIELD_A">      0.00000000</i>
  </separator>
 </parameters>
 <atominfo>
  <atoms>       2 </atoms>
  <types>       2 </types>
  <array name="atoms" >
   <dimension dim="1">ion</dimension>
   <field type="string">element</field>
   <field type="int">atomtype</field>
   <set>
    <rc><c>Ga</c><c>   1</c></rc>
    <rc><c>N </c><c>   2</c></rc>
   </set>
  </array>
  <array name="atomtypes" >
   <dimension dim="1">type</dimension>
   <field type="int">atomspertype</field>
   <field type="string">element</field>
   <field>mass</field>
   <field>valence</field>
   <field type="string">pseudopotential</field>
   <set>
    <rc><c>   1</c><c>Ga</c><c>     69.72300000</c><c>     13.00000000</c><c>  PAW_PBE Ga_d 06Jul2010                </c></rc>
    <rc><c>   1</c><c>N </c><c>     14.00100000</c><c>      5.00000000</c><c>  PAW_PBE N 08Apr2002                   </c></rc>
   </set>
  </array>
 </atominfo>
 <structure name="initialpos" >
  <crystal>
   <varray name="basis" >
    <v>       3.21119900       0.00000000       0.00000000 </v>
    <v>      -1.60560000       2.78125200       0.00000000 </v>
    <v>       0.00000000       0.00000000      20.00530100 </v>
   </varray>
   <i name="volume">    178.67041687 </i>
   <varray name="rec_basis" >
    <v>       0.31141016       0.17977521       0.00000000 </v>
    <v>       0.00000000       0.35955030       0.00000000 </v>
    <v>       0.00000000       0.00000000       0.04998675 </v>
   </varray>
  </crystal>
  <varray name="positions" >
   <v>       0.33333100       0.66666100       0.49989900 </v>
   <v>       0.00003100       0.00006300       0.50010100 </v>
  </varray>
 </structure>
 <calculation>
  <scstep>
   <time name="dav">   12.60   12.61</time>
   <time name="total">   13.98   13.98</time>
   <energy>
    <i name="alphaZ">      5.79084279 </i>
    <i name="ewald">   3189.75797486 </i>
    <i name="hartreedc">  -5064.09114041 </i>
    <i name="XCdc">     63.62783966 </i>
    <i name="pawpsdc">   1807.85979110 </i>
    <i name="pawaedc">  -2142.56746404 </i>
    <i name="eentropy">      0.00000000 </i>
    <i name="bandstr">   -192.98821806 </i>
    <i name="atom">   2413.36327726 </i>
    <i name="e_fr_energy">     80.75290316 </i>
    <i name="e_wo_entrp">     80.75290316 </i>
    <i name="e_0_energy">     80.75290316 </i>
   </energy>
  </scstep>
  <scstep>
   <time name="dav">   14.17   14.18</time>
   <time name="total">   14.18   14.18</time>
   <energy>
    <i name="e_fr_energy">    -51.67351904 </i>
    <i name="e_wo_entrp">    -51.67351904 </i>
    <i name="e_0_energy">    -51.67351904 </i>
   </energy>
  </scstep>
  <scstep>
   <time name="dav">   13.31   13.32</time>
   <time name="total">   13.32   13.32</time>
   <energy>
    <i name="e_fr_energy">    -72.96262862 </i>
    <i name="e_wo_entrp">    -72.96262862 </i>
    <i name="e_0_energy">    -72.96262862 </i>
   </energy>
  </scstep>
  <scstep>
   <time name="dav">   16.09   16.10</time>
   <time name="total">   16.09   16.10</time>
   <energy>
    <i name="e_fr_energy">    -73.99045125 </i>
    <i name="e_wo_entrp">    -73.99045125 </i>
    <i name="e_0_energy">    -73.99045125 </i>
   </energy>
  </scstep>
  <scstep>
   <time name="dav">   14.78   14.79</time>
   <time name="total">   15.86   15.88</time>
   <energy>
    <i name="e_fr_energy">    -74.00749797 </i>
    <i name="e_wo_entrp">    -74.00749797 </i>
    <i name="e_0_energy">    -74.00749797 </i>
   </energy>
  </scstep>
  <scstep>
   <time name="dav">   17.35   17.37</time>
   <time name="total">   19.68   19.70</time>
   <energy>
    <i name="e_fr_energy">    -61.81870273 </i>
    <i name="e_wo_entrp">    -61.81870273 </i>
    <i name="e_0_energy">    -61.81870273 </i>
   </energy>
  </scstep>
  <scstep>
   <time name="dav">   14.86   14.88</time>
   <time name="total">   17.21   17.23</time>
   <energy>
    <i name="e_fr_energy">    -62.80705072 </i>
    <i name="e_wo_entrp">    -62.80705072 </i>
    <i name="e_0_energy">    -62.80705072 </i>
   </energy>
  </scstep>
  <scstep>
   <time name="dav">   15.61   15.62</time>
   <time name="total">   17.97   17.97</time>
   <energy>
    <i name="e_fr_energy">    -63.42496694 </i>
    <i name="e_wo_entrp">    -63.42496694 </i>
    <i name="e_0_energy">    -63.42496694 </i>
   </energy>
  </scstep>
  <scstep>
   <time name="dav">   14.23   14.24</time>
   <time name="total">   16.59   16.59</time>
   <energy>
    <i name="e_fr_energy">    -65.19968998 </i>
    <i name="e_wo_entrp">    -65.19968998 </i>
    <i name="e_0_energy">    -65.19968998 </i>
   </energy>
  </scstep>
  <scstep>
   <time name="dav">   15.08   15.09</time>
   <time name="total">   17.44   17.45</time>
   <energy>
    <i name="e_fr_energy">    -65.63830802 </i>
    <i name="e_wo_entrp">    -65.63830802 </i>
    <i name="e_0_energy">    -65.63830802 </i>
   </energy>
  </scstep>
  <scstep>
   <time name="dav">   12.91   12.92</time>
   <time name="total">   15.26   15.26</time>
   <energy>
    <i name="e_fr_energy">    -65.74989969 </i>
    <i name="e_wo_entrp">    -65.74989969 </i>
    <i name="e_0_energy">    -65.74989969 </i>
   </energy>
  </scstep>
  <scstep>
   <time name="dav">   13.27   13.28</time>
   <time name="total">   15.62   15.63</time>
   <energy>
    <i name="e_fr_energy">    -66.44960305 </i>
    <i name="e_wo_entrp">    -66.44960305 </i>
    <i name="e_0_energy">    -66.44960305 </i>
   </energy>
  </scstep>
  <scstep>
   <time name="dav">   13.98   13.98</time>
   <time name="total">   16.32   16.33</time>
   <energy>
    <i name="e_fr_energy">    -66.74135651 </i>
    <i name="e_wo_entrp">    -66.74135651 </i>
    <i name="e_0_energy">    -66.74135651 </i>
   </energy>
  </scstep>
  <scstep>
   <time name="dav">   14.10   14.11</time>
   <time name="total">   16.47   16.48</time>
   <energy>
    <i name="e_fr_energy">    -66.82696672 </i>
    <i name="e_wo_entrp">    -66.82696672 </i>
    <i name="e_0_energy">    -66.82696672 </i>
   </energy>
  </scstep>
  <scstep>
   <time name="dav">   13.72   13.73</time>
   <time name="total">   16.08   16.09</time>
   <energy>
    <i name="e_fr_energy">    -66.84251957 </i>
    <i name="e_wo_entrp">    -66.84251957 </i>
    <i name="e_0_energy">    -66.84251957 </i>
   </energy>
  </scstep>
  <scstep>
   <time name="dav">   13.17   13.17</time>
   <time name="total">   15.52   15.53</time>
   <energy>
    <i name="e_fr_energy">    -66.84376921 </i>
    <i name="e_wo_entrp">    -66.84376921 </i>
    <i name="e_0_energy">    -66.84376921 </i>
   </energy>
  </scstep>
  <scstep>
   <time name="dav">   13.07   13.08</time>
   <time name="total">   15.41   15.42</time>
   <energy>
    <i name="e_fr_energy">    -66.84496142 </i>
    <i name="e_wo_entrp">    -66.84496142 </i>
    <i name="e_0_energy">    -66.84496142 </i>
   </energy>
  </scstep>
  <scstep>
   <time name="dav">   13.03   13.04</time>
   <time name="total">   15.39   15.40</time>
   <energy>
    <i name="e_fr_energy">    -66.84412250 </i>
    <i name="e_wo_entrp">    -66.84412250 </i>
    <i name="e_0_energy">    -66.84412250 </i>
   </energy>
  </scstep>
  <scstep>
   <time name="dav">   13.05   13.06</time>
   <time name="total">   15.42   15.42</time>
   <energy>
    <i name="e_fr_energy">    -66.84582668 </i>
    <i name="e_wo_entrp">    -66.84582668 </i>
    <i name="e_0_energy">    -66.84582668 </i>
   </energy>
  </scstep>
  <scstep>
   <time name="dav">   12.93   12.93</time>
   <time name="total">   15.29   15.30</time>
   <energy>
    <i name="e_fr_energy">    -66.84560758 </i>
    <i name="e_wo_entrp">    -66.84560758 </i>
    <i name="e_0_energy">    -66.84560758 </i>
   </energy>
  </scstep>
  <scstep>
   <time name="dav">   13.62   13.62</time>
   <time name="total">   14.96   14.97</time>
   <energy>
    <i name="alphaZ">      5.79084279 </i>
    <i name="ewald">   3189.75797486 </i>
    <i name="hartreedc">  -5138.51616138 </i>
    <i name="XCdc">     65.33209671 </i>
    <i name="pawpsdc">   2285.03769579 </i>
    <i name="pawaedc">  -2620.87345150 </i>
    <i name="eentropy">      0.00000000 </i>
    <i name="bandstr">   -266.73787602 </i>
    <i name="atom">   2413.36327726 </i>
    <i name="e_fr_energy">    -66.84560149 </i>
    <i name="e_wo_entrp">    -66.84560149 </i>
    <i name="e_0_energy">    -66.84560149 </i>
   </energy>
  </scstep>
  <structure>
   <crystal>
    <varray name="basis" >
     <v>       3.21119900       0.00000000       0.00000000 </v>
     <v>      -1.60560000       2.78125200       0.00000000 </v>
     <v>       0.00000000       0.00000000      20.00530100 </v>
    </varray>
    <i name="volume">    178.67041687 </i>
    <varray name="rec_basis" >
     <v>       0.31141016       0.17977521       0.00000000 </v>
     <v>       0.00000000       0.35955030       0.00000000 </v>
     <v>       0.00000000       0.00000000       0.04998675 </v>
    </varray>
   </crystal>
   <varray name="positions" >
    <v>       0.33333100       0.66666100       0.49989900 </v>
    <v>       0.00003100       0.00006300       0.50010100 </v>
   </varray>
  </structure>
  <varray name="forces" >
   <v>       0.00000000      -0.00394881       0.19728859 </v>
   <v>      -0.00000000       0.00394881      -0.19728859 </v>
  </varray>
  <varray name="stress" >
   <v>    -641.68192707       0.00011542      -0.00000000 </v>
   <v>       0.00011542    -642.03661655       0.00041860 </v>
   <v>      -0.00000000       0.00041920      -0.39254895 </v>
  </varray>
  <energy>
   <i name="e_fr_energy">    -66.84560149 </i>
   <i name="e_wo_entrp">    -66.84560149 </i>
   <i name="e_0_energy">      0.00000000 </i>
  </energy>
  <time name="totalsc">  345.07  345.25</time>
  <eigenvalues>
   <array>
    <dimension dim="1">band</dimension>
    <dimension dim="2">kpoint</dimension>
    <dimension dim="3">spin</dimension>
    <field>eigene</field>
    <field>occ</field>
    <set>
     <set comment="spin 1">
      <set comment="kpoint 1">
       <r>  -21.2068    1.0000 </r>
       <r>  -18.1891    1.0000 </r>
       <r>  -18.1890    1.0000 </r>
       <r>  -17.4795    1.0000 </r>
       <r>  -17.4793    1.0000 </r>
       <r>  -16.8934    1.0000 </r>
       <r>   -8.0957    1.0000 </r>
       <r>   -6.4852    1.0000 </r>
       <r>   -6.4835    1.0000 </r>
       <r>   -2.2967    0.0000 </r>
       <r>    0.8030    0.0000 </r>
       <r>    1.0509    0.0000 </r>
       <r>    1.5015    0.0000 </r>
       <r>    2.1654    0.0000 </r>
       <r>    3.3274    0.0000 </r>
       <r>    3.5851    0.0000 </r>
      </set>
      <set comment="kpoint 2">
       <r>  -21.1407    1.0000 </r>
       <r>  -18.1709    1.0000 </r>
       <r>  -18.1612    1.0000 </r>
       <r>  -17.4916    1.0000 </r>
       <r>  -17.4810    1.0000 </r>
       <r>  -16.8812    1.0000 </r>
       <r>   -7.9830    1.0000 </r>
       <r>   -7.0486    1.0000 </r>
       <r>   -6.6449    1.0000 </r>
       <r>   -1.8573    0.0000 </r>
       <r>    0.8876    0.0000 </r>
       <r>    1.2163    0.0000 </r>
       <r>    1.6850    0.0000 </r>
       <r>    2.2877    0.0000 </r>
       <r>    3.4975    0.0000 </r>
       <r>    3.6588    0.0000 </r>
      </set>
      <set comment="kpoint 3">
       <r>  -20.9642    1.0000 </r>
       <r>  -18.1052    1.0000 </r>
       <r>  -18.0848    1.0000 </r>
       <r>  -17.5238    1.0000 </r>
       <r>  -17.4853    1.0000 </r>
       <r>  -16.8427    1.0000 </r>
       <r>   -8.2779    1.0000 </r>
       <r>   -7.6651    1.0000 </r>
       <r>   -7.0518    1.0000 </r>
       <r>   -0.9919    0.0000 </r>
       <r>    1.0735    0.0000 </r>
       <r>    1.7046    0.0000 </r>
       <r>    2.1941    0.0000 </r>
       <r>    2.6456    0.0000 </r>
       <r>    3.8994    0.0000 </r>
       <r>    3.9448    0.0000 </r>
      </set>
      <set comment="kpoint 4">
       <r>  -20.7391    1.0000 </r>
       <r>  -17.9807    1.0000 </r>
       <r>  -17.9720    1.0000 </r>
       <r>  -17.5648    1.0000 </r>
       <r>  -17.4910    1.0000 </r>
       <r>  -16.7690    1.0000 </r>
       <r>   -9.6479    1.0000 </r>
       <r>   -7.5449    1.0000 </r>
       <r>   -7.2062    1.0000 </r>
       <r>   -0.1865    0.0000 </r>
       <r>    1.1487    0.0000 </r>
       <r>    2.4856    0.0000 </r>
       <r>    2.8482    0.0000 </r>
       <r>    3.2502    0.0000 </r>
       <r>    4.1594    0.0000 </r>
       <r>    4.4046    0.0000 </r>
      </set>
      <set comment="kpoint 5">
       <r>  -20.5456    1.0000 </r>
       <r>  -17.8808    1.0000 </r>
       <r>  -17.7915    1.0000 </r>
       <r>  -17.6012    1.0000 </r>
       <r>  -17.4962    1.0000 </r>
       <r>  -16.6472    1.0000 </r>
       <r>  -10.8550    1.0000 </r>
       <r>   -7.9682    1.0000 </r>
       <r>   -6.7255    1.0000 </r>
       <r>    0.3144    0.0000 </r>
       <r>    0.9677    0.0000 </r>
       <r>    3.2887    0.0000 </r>
       <r>    3.7194    0.0000 </r>
       <r>    4.1547    0.0000 </r>
       <r>    4.7570    0.0000 </r>
       <r>    5.2520    0.0000 </r>
      </set>
      <set comment="kpoint 6">
       <r>  -20.4403    1.0000 </r>
       <r>  -17.8192    1.0000 </r>
       <r>  -17.6590    1.0000 </r>
       <r>  -17.6222    1.0000 </r>
       <r>  -17.4993    1.0000 </r>
       <r>  -16.5157    1.0000 </r>
       <r>  -11.6039    1.0000 </r>
       <r>   -8.2093    1.0000 </r>
       <r>   -6.4019    1.0000 </r>
       <r>    0.4825    0.0000 </r>
       <r>    0.7354    0.0000 </r>
       <r>    3.9514    0.0000 </r>
       <r>    5.1028    0.0000 </r>
       <r>    5.2226    0.0000 </r>
       <r>    5.5826    0.0000 </r>
       <r>    6.2246    0.0000 </r>
      </set>
      <set comment="kpoint 7">
       <r>  -21.1407    1.0000 </r>
       <r>  -18.1710    1.0000 </r>
       <r>  -18.1612    1.0000 </r>
       <r>  -17.4917    1.0000 </r>
       <r>  -17.4809    1.0000 </r>
       <r>  -16.8812    1.0000 </r>
       <r>   -7.9830    1.0000 </r>
       <r>   -7.0498    1.0000 </r>
       <r>   -6.6437    1.0000 </r>
       <r>   -1.8573    0.0000 </r>
       <r>    0.8876    0.0000 </r>
       <r>    1.2163    0.0000 </r>
       <r>    1.6850    0.0000 </r>
       <r>    2.2877    0.0000 </r>
       <r>    3.4975    0.0000 </r>
       <r>    3.6588    0.0000 </r>
      </set>
      <set comment="kpoint 8">
       <r>  -21.0193    1.0000 </r>
       <r>  -18.1369    1.0000 </r>
       <r>  -18.1012    1.0000 </r>
       <r>  -17.5134    1.0000 </r>
       <r>  -17.4844    1.0000 </r>
       <r>  -16.8557    1.0000 </r>
       <r>   -7.8862    1.0000 </r>
       <r>   -7.7675    1.0000 </r>
       <r>   -6.9733    1.0000 </r>
       <r>   -1.2123    0.0000 </r>
       <r>    1.0241    0.0000 </r>
       <r>    1.5441    0.0000 </r>
       <r>    2.0402    0.0000 </r>
       <r>    2.5275    0.0000 </r>
       <r>    3.8156    0.0000 </r>
       <r>    3.8286    0.0000 </r>
      </set>
      <set comment="kpoint 9">
       <r>  -20.8181    1.0000 </r>
       <r>  -18.0620    1.0000 </r>
       <r>  -17.9861    1.0000 </r>
       <r>  -17.5485    1.0000 </r>
       <r>  -17.4908    1.0000 </r>
       <r>  -16.7975    1.0000 </r>
       <r>   -9.0824    1.0000 </r>
       <r>   -7.5144    1.0000 </r>
       <r>   -7.3777    1.0000 </r>
       <r>   -0.3485    0.0000 </r>
       <r>    1.1575    0.0000 </r>
       <r>    2.1883    0.0000 </r>
       <r>    2.6743    0.0000 </r>
       <r>    3.0069    0.0000 </r>
       <r>    4.1564    0.0000 </r>
       <r>    4.1929    0.0000 </r>
      </set>
      <set comment="kpoint 10">
       <r>  -20.6095    1.0000 </r>
       <r>  -17.9526    1.0000 </r>
       <r>  -17.8352    1.0000 </r>
       <r>  -17.5853    1.0000 </r>
       <r>  -17.4978    1.0000 </r>
       <r>  -16.6899    1.0000 </r>
       <r>  -10.3070    1.0000 </r>
       <r>   -8.0476    1.0000 </r>
       <r>   -6.9025    1.0000 </r>
       <r>    0.3906    0.0000 </r>
       <r>    1.0926    0.0000 </r>
       <r>    3.0704    0.0000 </r>
       <r>    3.3389    0.0000 </r>
       <r>    3.7699    0.0000 </r>
       <r>    4.3765    0.0000 </r>
       <r>    4.8925    0.0000 </r>
      </set>
      <set comment="kpoint 11">
       <r>  -20.4630    1.0000 </r>
       <r>  -17.8552    1.0000 </r>
       <r>  -17.6967    1.0000 </r>
       <r>  -17.6126    1.0000 </r>
       <r>  -17.5032    1.0000 </r>
       <r>  -16.5343    1.0000 </r>
       <r>  -11.2704    1.0000 </r>
       <r>   -8.4232    1.0000 </r>
       <r>   -6.4897    1.0000 </r>
       <r>    0.7778    0.0000 </r>
       <r>    0.8716    0.0000 </r>
       <r>    3.7306    0.0000 </r>
       <r>    4.4867    0.0000 </r>
       <r>    4.7989    0.0000 </r>
       <r>    5.2552    0.0000 </r>
       <r>    5.8436    0.0000 </r>
      </set>
      <set comment="kpoint 12">
       <r>  -20.4121    1.0000 </r>
       <r>  -17.8169    1.0000 </r>
       <r>  -17.6416    1.0000 </r>
       <r>  -17.6226    1.0000 </r>
       <r>  -17.5052    1.0000 </r>
       <r>  -16.4436    1.0000 </r>
       <r>  -11.6524    1.0000 </r>
       <r>   -8.5575    1.0000 </r>
       <r>   -6.3208    1.0000 </r>
       <r>    0.7432    0.0000 </r>
       <r>    0.8745    0.0000 </r>
       <r>    4.1507    0.0000 </r>
       <r>    5.4997    0.0000 </r>
       <r>    5.7688    0.0000 </r>
       <r>    6.0729    0.0000 </r>
       <r>    6.1723    0.0000 </r>
      </set>
      <set comment="kpoint 13">
       <r>  -20.4630    1.0000 </r>
       <r>  -17.8555    1.0000 </r>
       <r>  -17.6965    1.0000 </r>
       <r>  -17.6126    1.0000 </r>
       <r>  -17.5032    1.0000 </r>
       <r>  -16.5342    1.0000 </r>
       <r>  -11.2704    1.0000 </r>
       <r>   -8.4232    1.0000 </r>
       <r>   -6.4897    1.0000 </r>
       <r>    0.7779    0.0000 </r>
       <r>    0.8718    0.0000 </r>
       <r>    3.7304    0.0000 </r>
       <r>    4.4869    0.0000 </r>
       <r>    4.7990    0.0000 </r>
       <r>    5.2551    0.0000 </r>
       <r>    5.8437    0.0000 </r>
      </set>
      <set comment="kpoint 14">
       <r>  -20.6096    1.0000 </r>
       <r>  -17.9529    1.0000 </r>
       <r>  -17.8348    1.0000 </r>
       <r>  -17.5853    1.0000 </r>
       <r>  -17.4979    1.0000 </r>
       <r>  -16.6898    1.0000 </r>
       <r>  -10.3068    1.0000 </r>
       <r>   -8.0477    1.0000 </r>
       <r>   -6.9025    1.0000 </r>
       <r>    0.3906    0.0000 </r>
       <r>    1.0927    0.0000 </r>
       <r>    3.0705    0.0000 </r>
       <r>    3.3389    0.0000 </r>
       <r>    3.7700    0.0000 </r>
       <r>    4.3759    0.0000 </r>
       <r>    4.8926    0.0000 </r>
      </set>
      <set comment="kpoint 15">
       <r>  -20.8181    1.0000 </r>
       <r>  -18.0623    1.0000 </r>
       <r>  -17.9857    1.0000 </r>
       <r>  -17.5484    1.0000 </r>
       <r>  -17.4909    1.0000 </r>
       <r>  -16.7975    1.0000 </r>
       <r>   -9.0819    1.0000 </r>
       <r>   -7.5149    1.0000 </r>
       <r>   -7.3777    1.0000 </r>
       <r>   -0.3485    0.0000 </r>
       <r>    1.1576    0.0000 </r>
       <r>    2.1884    0.0000 </r>
       <r>    2.6744    0.0000 </r>
       <r>    3.0071    0.0000 </r>
       <r>    4.1558    0.0000 </r>
       <r>    4.1931    0.0000 </r>
      </set>
      <set comment="kpoint 16">
       <r>  -21.0193    1.0000 </r>
       <r>  -18.1371    1.0000 </r>
       <r>  -18.1010    1.0000 </r>
       <r>  -17.5132    1.0000 </r>
       <r>  -17.4846    1.0000 </r>
       <r>  -16.8557    1.0000 </r>
       <r>   -7.8851    1.0000 </r>
       <r>   -7.7675    1.0000 </r>
       <r>   -6.9744    1.0000 </r>
       <r>   -1.2123    0.0000 </r>
       <r>    1.0242    0.0000 </r>
       <r>    1.5441    0.0000 </r>
       <r>    2.0402    0.0000 </r>
       <r>    2.5276    0.0000 </r>
       <r>    3.8157    0.0000 </r>
       <r>    3.8286    0.0000 </r>
      </set>
      <set comment="kpoint 17">
       <r>  -20.9641    1.0000 </r>
       <r>  -18.1053    1.0000 </r>
       <r>  -18.0847    1.0000 </r>
       <r>  -17.5240    1.0000 </r>
       <r>  -17.4852    1.0000 </r>
       <r>  -16.8428    1.0000 </r>
       <r>   -8.2791    1.0000 </r>
       <r>   -7.6651    1.0000 </r>
       <r>   -7.0505    1.0000 </r>
       <r>   -0.9917    0.0000 </r>
       <r>    1.0733    0.0000 </r>
       <r>    1.7045    0.0000 </r>
       <r>    2.1941    0.0000 </r>
       <r>    2.6455    0.0000 </r>
       <r>    3.8992    0.0000 </r>
       <r>    3.9449    0.0000 </r>
      </set>
      <set comment="kpoint 18">
       <r>  -20.8180    1.0000 </r>
       <r>  -18.0621    1.0000 </r>
       <r>  -17.9860    1.0000 </r>
       <r>  -17.5485    1.0000 </r>
       <r>  -17.4908    1.0000 </r>
       <r>  -16.7976    1.0000 </r>
       <r>   -9.0831    1.0000 </r>
       <r>   -7.5137    1.0000 </r>
       <r>   -7.3777    1.0000 </r>
       <r>   -0.3484    0.0000 </r>
       <r>    1.1573    0.0000 </r>
       <r>    2.1882    0.0000 </r>
       <r>    2.6744    0.0000 </r>
       <r>    3.0068    0.0000 </r>
       <r>    4.1567    0.0000 </r>
       <r>    4.1928    0.0000 </r>
      </set>
      <set comment="kpoint 19">
       <r>  -20.6335    1.0000 </r>
       <r>  -17.9944    1.0000 </r>
       <r>  -17.8394    1.0000 </r>
       <r>  -17.5771    1.0000 </r>
       <r>  -17.5007    1.0000 </r>
       <r>  -16.6990    1.0000 </r>
       <r>   -9.9909    1.0000 </r>
       <r>   -8.2418    1.0000 </r>
       <r>   -6.9677    1.0000 </r>
       <r>    0.5275    0.0000 </r>
       <r>    1.1451    0.0000 </r>
       <r>    2.9850    0.0000 </r>
       <r>    3.3869    0.0000 </r>
       <r>    3.6478    0.0000 </r>
       <r>    4.1487    0.0000 </r>
       <r>    4.7831    0.0000 </r>
      </set>
      <set comment="kpoint 20">
       <r>  -20.4750    1.0000 </r>
       <r>  -17.9035    1.0000 </r>
       <r>  -17.7131    1.0000 </r>
       <r>  -17.6013    1.0000 </r>
       <r>  -17.5111    1.0000 </r>
       <r>  -16.5273    1.0000 </r>
       <r>  -10.8476    1.0000 </r>
       <r>   -8.8856    1.0000 </r>
       <r>   -6.5469    1.0000 </r>
       <r>    1.0098    0.0000 </r>
       <r>    1.2956    0.0000 </r>
       <r>    3.7406    0.0000 </r>
       <r>    4.1747    0.0000 </r>
       <r>    4.5735    0.0000 </r>
       <r>    4.9281    0.0000 </r>
       <r>    5.6391    0.0000 </r>
      </set>
      <set comment="kpoint 21">
       <r>  -20.3879    1.0000 </r>
       <r>  -17.8294    1.0000 </r>
       <r>  -17.6566    1.0000 </r>
       <r>  -17.6150    1.0000 </r>
       <r>  -17.5177    1.0000 </r>
       <r>  -16.3549    1.0000 </r>
       <r>  -11.4135    1.0000 </r>
       <r>   -9.2385    1.0000 </r>
       <r>   -6.2704    1.0000 </r>
       <r>    0.8820    0.0000 </r>
       <r>    1.6531    0.0000 </r>
       <r>    4.2478    0.0000 </r>
       <r>    5.3694    0.0000 </r>
       <r>    5.5722    0.0000 </r>
       <r>    6.0103    0.0000 </r>
       <r>    6.3947    0.0000 </r>
      </set>
      <set comment="kpoint 22">
       <r>  -20.3879    1.0000 </r>
       <r>  -17.8296    1.0000 </r>
       <r>  -17.6564    1.0000 </r>
       <r>  -17.6150    1.0000 </r>
       <r>  -17.5177    1.0000 </r>
       <r>  -16.3548    1.0000 </r>
       <r>  -11.4134    1.0000 </r>
       <r>   -9.2386    1.0000 </r>
       <r>   -6.2704    1.0000 </r>
       <r>    0.8821    0.0000 </r>
       <r>    1.6532    0.0000 </r>
       <r>    4.2473    0.0000 </r>
       <r>    5.3694    0.0000 </r>
       <r>    5.5726    0.0000 </r>
       <r>    6.0107    0.0000 </r>
       <r>    6.3950    0.0000 </r>
      </set>
      <set comment="kpoint 23">
       <r>  -20.4751    1.0000 </r>
       <r>  -17.9038    1.0000 </r>
       <r>  -17.7127    1.0000 </r>
       <r>  -17.6012    1.0000 </r>
       <r>  -17.5112    1.0000 </r>
       <r>  -16.5271    1.0000 </r>
       <r>  -10.8473    1.0000 </r>
       <r>   -8.8859    1.0000 </r>
       <r>   -6.5469    1.0000 </r>
       <r>    1.0101    0.0000 </r>
       <r>    1.2957    0.0000 </r>
       <r>    3.7400    0.0000 </r>
       <r>    4.1749    0.0000 </r>
       <r>    4.5738    0.0000 </r>
       <r>    4.9276    0.0000 </r>
       <r>    5.6393    0.0000 </r>
      </set>
      <set comment="kpoint 24">
       <r>  -20.6336    1.0000 </r>
       <r>  -17.9947    1.0000 </r>
       <r>  -17.8389    1.0000 </r>
       <r>  -17.5770    1.0000 </r>
       <r>  -17.5008    1.0000 </r>
       <r>  -16.6988    1.0000 </r>
       <r>   -9.9901    1.0000 </r>
       <r>   -8.2425    1.0000 </r>
       <r>   -6.9677    1.0000 </r>
       <r>    0.5274    0.0000 </r>
       <r>    1.1455    0.0000 </r>
       <r>    2.9852    0.0000 </r>
       <r>    3.3868    0.0000 </r>
       <r>    3.6481    0.0000 </r>
       <r>    4.1474    0.0000 </r>
       <r>    4.7834    0.0000 </r>
      </set>
      <set comment="kpoint 25">
       <r>  -20.7389    1.0000 </r>
       <r>  -17.9807    1.0000 </r>
       <r>  -17.9722    1.0000 </r>
       <r>  -17.5649    1.0000 </r>
       <r>  -17.4909    1.0000 </r>
       <r>  -16.7692    1.0000 </r>
       <r>   -9.6490    1.0000 </r>
       <r>   -7.5436    1.0000 </r>
       <r>   -7.2062    1.0000 </r>
       <r>   -0.1860    0.0000 </r>
       <r>    1.1483    0.0000 </r>
       <r>    2.4855    0.0000 </r>
       <r>    2.8484    0.0000 </r>
       <r>    3.2499    0.0000 </r>
       <r>    4.1596    0.0000 </r>
       <r>    4.4043    0.0000 </r>
      </set>
      <set comment="kpoint 26">
       <r>  -20.6094    1.0000 </r>
       <r>  -17.9527    1.0000 </r>
       <r>  -17.8352    1.0000 </r>
       <r>  -17.5854    1.0000 </r>
       <r>  -17.4977    1.0000 </r>
       <r>  -16.6900    1.0000 </r>
       <r>  -10.3079    1.0000 </r>
       <r>   -8.0466    1.0000 </r>
       <r>   -6.9025    1.0000 </r>
       <r>    0.3913    0.0000 </r>
       <r>    1.0921    0.0000 </r>
       <r>    3.0705    0.0000 </r>
       <r>    3.3390    0.0000 </r>
       <r>    3.7696    0.0000 </r>
       <r>    4.3761    0.0000 </r>
       <r>    4.8922    0.0000 </r>
      </set>
      <set comment="kpoint 27">
       <r>  -20.4749    1.0000 </r>
       <r>  -17.9035    1.0000 </r>
       <r>  -17.7131    1.0000 </r>
       <r>  -17.6014    1.0000 </r>
       <r>  -17.5111    1.0000 </r>
       <r>  -16.5274    1.0000 </r>
       <r>  -10.8482    1.0000 </r>
       <r>   -8.8849    1.0000 </r>
       <r>   -6.5469    1.0000 </r>
       <r>    1.0094    0.0000 </r>
       <r>    1.2962    0.0000 </r>
       <r>    3.7407    0.0000 </r>
       <r>    4.1745    0.0000 </r>
       <r>    4.5734    0.0000 </r>
       <r>    4.9277    0.0000 </r>
       <r>    5.6390    0.0000 </r>
      </set>
      <set comment="kpoint 28">
       <r>  -20.3782    1.0000 </r>
       <r>  -17.8374    1.0000 </r>
       <r>  -17.6671    1.0000 </r>
       <r>  -17.6095    1.0000 </r>
       <r>  -17.5249    1.0000 </r>
       <r>  -16.3163    1.0000 </r>
       <r>  -11.1841    1.0000 </r>
       <r>   -9.6521    1.0000 </r>
       <r>   -6.2543    1.0000 </r>
       <r>    0.9706    0.0000 </r>
       <r>    2.0588    0.0000 </r>
       <r>    4.3317    0.0000 </r>
       <r>    5.2720    0.0000 </r>
       <r>    5.4256    0.0000 </r>
       <r>    6.0040    0.0000 </r>
       <r>    6.2095    0.0000 </r>
      </set>
      <set comment="kpoint 29">
       <r>  -20.3436    1.0000 </r>
       <r>  -17.7976    1.0000 </r>
       <r>  -17.6704    1.0000 </r>
       <r>  -17.6115    1.0000 </r>
       <r>  -17.5311    1.0000 </r>
       <r>  -16.2112    1.0000 </r>
       <r>  -11.2924    1.0000 </r>
       <r>   -9.9685    1.0000 </r>
       <r>   -6.1398    1.0000 </r>
       <r>    0.9677    0.0000 </r>
       <r>    2.3139    0.0000 </r>
       <r>    4.8405    0.0000 </r>
       <r>    5.1871    0.0000 </r>
       <r>    6.3888    0.0000 </r>
       <r>    7.0196    0.0000 </r>
       <r>    7.1784    0.0000 </r>
      </set>
      <set comment="kpoint 30">
       <r>  -20.3783    1.0000 </r>
       <r>  -17.8377    1.0000 </r>
       <r>  -17.6667    1.0000 </r>
       <r>  -17.6094    1.0000 </r>
       <r>  -17.5250    1.0000 </r>
       <r>  -16.3161    1.0000 </r>
       <r>  -11.1836    1.0000 </r>
       <r>   -9.6527    1.0000 </r>
       <r>   -6.2543    1.0000 </r>
       <r>    0.9711    0.0000 </r>
       <r>    2.0587    0.0000 </r>
       <r>    4.3309    0.0000 </r>
       <r>    5.2719    0.0000 </r>
       <r>    5.4262    0.0000 </r>
       <r>    6.0043    0.0000 </r>
       <r>    6.2099    0.0000 </r>
      </set>
      <set comment="kpoint 31">
       <r>  -20.5454    1.0000 </r>
       <r>  -17.8807    1.0000 </r>
       <r>  -17.7918    1.0000 </r>
       <r>  -17.6013    1.0000 </r>
       <r>  -17.4961    1.0000 </r>
       <r>  -16.6475    1.0000 </r>
       <r>  -10.8561    1.0000 </r>
       <r>   -7.9670    1.0000 </r>
       <r>   -6.7255    1.0000 </r>
       <r>    0.3156    0.0000 </r>
       <r>    0.9669    0.0000 </r>
       <r>    3.2887    0.0000 </r>
       <r>    3.7191    0.0000 </r>
       <r>    4.1542    0.0000 </r>
       <r>    4.7565    0.0000 </r>
       <r>    5.2516    0.0000 </r>
      </set>
      <set comment="kpoint 32">
       <r>  -20.4627    1.0000 </r>
       <r>  -17.8553    1.0000 </r>
       <r>  -17.6968    1.0000 </r>
       <r>  -17.6128    1.0000 </r>
       <r>  -17.5031    1.0000 </r>
       <r>  -16.5346    1.0000 </r>
       <r>  -11.2714    1.0000 </r>
       <r>   -8.4220    1.0000 </r>
       <r>   -6.4896    1.0000 </r>
       <r>    0.7791    0.0000 </r>
       <r>    0.8709    0.0000 </r>
       <r>    3.7303    0.0000 </r>
       <r>    4.4864    0.0000 </r>
       <r>    4.7985    0.0000 </r>
       <r>    5.2546    0.0000 </r>
       <r>    5.8433    0.0000 </r>
      </set>
      <set comment="kpoint 33">
       <r>  -20.3877    1.0000 </r>
       <r>  -17.8293    1.0000 </r>
       <r>  -17.6567    1.0000 </r>
       <r>  -17.6151    1.0000 </r>
       <r>  -17.5176    1.0000 </r>
       <r>  -16.3552    1.0000 </r>
       <r>  -11.4143    1.0000 </r>
       <r>   -9.2375    1.0000 </r>
       <r>   -6.2703    1.0000 </r>
       <r>    0.8812    0.0000 </r>
       <r>    1.6542    0.0000 </r>
       <r>    4.2474    0.0000 </r>
       <r>    5.3695    0.0000 </r>
       <r>    5.5719    0.0000 </r>
       <r>    6.0101    0.0000 </r>
       <r>    6.3947    0.0000 </r>
      </set>
      <set comment="kpoint 34">
       <r>  -20.3436    1.0000 </r>
       <r>  -17.7975    1.0000 </r>
       <r>  -17.6706    1.0000 </r>
       <r>  -17.6116    1.0000 </r>
       <r>  -17.5310    1.0000 </r>
       <r>  -16.2114    1.0000 </r>
       <r>  -11.2929    1.0000 </r>
       <r>   -9.9679    1.0000 </r>
       <r>   -6.1398    1.0000 </r>
       <r>    0.9673    0.0000 </r>
       <r>    2.3143    0.0000 </r>
       <r>    4.8408    0.0000 </r>
       <r>    5.1874    0.0000 </r>
       <r>    6.3884    0.0000 </r>
       <r>    7.0191    0.0000 </r>
       <r>    7.1780    0.0000 </r>
      </set>
      <set comment="kpoint 35">
       <r>  -20.4400    1.0000 </r>
       <r>  -17.8192    1.0000 </r>
       <r>  -17.6592    1.0000 </r>
       <r>  -17.6224    1.0000 </r>
       <r>  -17.4992    1.0000 </r>
       <r>  -16.5162    1.0000 </r>
       <r>  -11.6048    1.0000 </r>
       <r>   -8.2081    1.0000 </r>
       <r>   -6.4019    1.0000 </r>
       <r>    0.4843    0.0000 </r>
       <r>    0.7343    0.0000 </r>
       <r>    3.9509    0.0000 </r>
       <r>    5.1022    0.0000 </r>
       <r>    5.2222    0.0000 </r>
       <r>    5.5819    0.0000 </r>
       <r>    6.2242    0.0000 </r>
      </set>
      <set comment="kpoint 36">
       <r>  -20.4118    1.0000 </r>
       <r>  -17.8168    1.0000 </r>
       <r>  -17.6418    1.0000 </r>
       <r>  -17.6227    1.0000 </r>
       <r>  -17.5051    1.0000 </r>
       <r>  -16.4441    1.0000 </r>
       <r>  -11.6533    1.0000 </r>
       <r>   -8.5564    1.0000 </r>
       <r>   -6.3208    1.0000 </r>
       <r>    0.7421    0.0000 </r>
       <r>    0.8762    0.0000 </r>
       <r>    4.1500    0.0000 </r>
       <r>    5.4996    0.0000 </r>
       <r>    5.7683    0.0000 </r>
       <r>    6.0722    0.0000 </r>
       <r>    6.1717    0.0000 </r>
      </set>
     </set>
     <set comment="spin 2">
      <set comment="kpoint 1">
       <r>  -21.2070    1.0000 </r>
       <r>  -18.1890    1.0000 </r>
       <r>  -18.1890    1.0000 </r>
       <r>  -17.4795    1.0000 </r>
       <r>  -17.4793    1.0000 </r>
       <r>  -16.8935    1.0000 </r>
       <r>   -8.0964    1.0000 </r>
       <r>   -6.4855    1.0000 </r>
       <r>   -6.4838    1.0000 </r>
       <r>   -2.3000    0.0000 </r>
       <r>    0.7581    0.0000 </r>
       <r>    1.0013    0.0000 </r>
       <r>    1.4491    0.0000 </r>
       <r>    2.1073    0.0000 </r>
       <r>    3.2813    0.0000 </r>
       <r>    3.5072    0.0000 </r>
      </set>
      <set comment="kpoint 2">
       <r>  -21.1409    1.0000 </r>
       <r>  -18.1709    1.0000 </r>
       <r>  -18.1611    1.0000 </r>
       <r>  -17.4916    1.0000 </r>
       <r>  -17.4810    1.0000 </r>
       <r>  -16.8814    1.0000 </r>
       <r>   -7.9837    1.0000 </r>
       <r>   -7.0489    1.0000 </r>
       <r>   -6.6452    1.0000 </r>
       <r>   -1.8610    0.0000 </r>
       <r>    0.8466    0.0000 </r>
       <r>    1.1674    0.0000 </r>
       <r>    1.6315    0.0000 </r>
       <r>    2.2269    0.0000 </r>
       <r>    3.4521    0.0000 </r>
       <r>    3.5839    0.0000 </r>
      </set>
      <set comment="kpoint 3">
       <r>  -20.9644    1.0000 </r>
       <r>  -18.1052    1.0000 </r>
       <r>  -18.0847    1.0000 </r>
       <r>  -17.5239    1.0000 </r>
       <r>  -17.4854    1.0000 </r>
       <r>  -16.8428    1.0000 </r>
       <r>   -8.2782    1.0000 </r>
       <r>   -7.6658    1.0000 </r>
       <r>   -7.0521    1.0000 </r>
       <r>   -0.9966    0.0000 </r>
       <r>    1.0446    0.0000 </r>
       <r>    1.6567    0.0000 </r>
       <r>    2.1402    0.0000 </r>
       <r>    2.5757    0.0000 </r>
       <r>    3.8334    0.0000 </r>
       <r>    3.9010    0.0000 </r>
      </set>
      <set comment="kpoint 4">
       <r>  -20.7393    1.0000 </r>
       <r>  -17.9807    1.0000 </r>
       <r>  -17.9720    1.0000 </r>
       <r>  -17.5648    1.0000 </r>
       <r>  -17.4910    1.0000 </r>
       <r>  -16.7691    1.0000 </r>
       <r>   -9.6482    1.0000 </r>
       <r>   -7.5451    1.0000 </r>
       <r>   -7.2068    1.0000 </r>
       <r>   -0.1910    0.0000 </r>
       <r>    1.1351    0.0000 </r>
       <r>    2.4358    0.0000 </r>
       <r>    2.8079    0.0000 </r>
       <r>    3.1686    0.0000 </r>
       <r>    4.1233    0.0000 </r>
       <r>    4.3508    0.0000 </r>
      </set>
      <set comment="kpoint 5">
       <r>  -20.5458    1.0000 </r>
       <r>  -17.8807    1.0000 </r>
       <r>  -17.7916    1.0000 </r>
       <r>  -17.6012    1.0000 </r>
       <r>  -17.4962    1.0000 </r>
       <r>  -16.6473    1.0000 </r>
       <r>  -10.8553    1.0000 </r>
       <r>   -7.9685    1.0000 </r>
       <r>   -6.7260    1.0000 </r>
       <r>    0.3120    0.0000 </r>
       <r>    0.9622    0.0000 </r>
       <r>    3.2535    0.0000 </r>
       <r>    3.6868    0.0000 </r>
       <r>    4.0716    0.0000 </r>
       <r>    4.7046    0.0000 </r>
       <r>    5.2083    0.0000 </r>
      </set>
      <set comment="kpoint 6">
       <r>  -20.4405    1.0000 </r>
       <r>  -17.8191    1.0000 </r>
       <r>  -17.6591    1.0000 </r>
       <r>  -17.6223    1.0000 </r>
       <r>  -17.4993    1.0000 </r>
       <r>  -16.5157    1.0000 </r>
       <r>  -11.6042    1.0000 </r>
       <r>   -8.2096    1.0000 </r>
       <r>   -6.4024    1.0000 </r>
       <r>    0.4813    0.0000 </r>
       <r>    0.7323    0.0000 </r>
       <r>    3.9381    0.0000 </r>
       <r>    5.0593    0.0000 </r>
       <r>    5.1614    0.0000 </r>
       <r>    5.5339    0.0000 </r>
       <r>    6.1711    0.0000 </r>
      </set>
      <set comment="kpoint 7">
       <r>  -21.1409    1.0000 </r>
       <r>  -18.1710    1.0000 </r>
       <r>  -18.1611    1.0000 </r>
       <r>  -17.4917    1.0000 </r>
       <r>  -17.4809    1.0000 </r>
       <r>  -16.8814    1.0000 </r>
       <r>   -7.9837    1.0000 </r>
       <r>   -7.0501    1.0000 </r>
       <r>   -6.6440    1.0000 </r>
       <r>   -1.8610    0.0000 </r>
       <r>    0.8466    0.0000 </r>
       <r>    1.1674    0.0000 </r>
       <r>    1.6315    0.0000 </r>
       <r>    2.2269    0.0000 </r>
       <r>    3.4521    0.0000 </r>
       <r>    3.5839    0.0000 </r>
      </set>
      <set comment="kpoint 8">
       <r>  -21.0195    1.0000 </r>
       <r>  -18.1369    1.0000 </r>
       <r>  -18.1011    1.0000 </r>
       <r>  -17.5134    1.0000 </r>
       <r>  -17.4845    1.0000 </r>
       <r>  -16.8559    1.0000 </r>
       <r>   -7.8865    1.0000 </r>
       <r>   -7.7681    1.0000 </r>
       <r>   -6.9736    1.0000 </r>
       <r>   -1.2169    0.0000 </r>
       <r>    0.9912    0.0000 </r>
       <r>    1.4961    0.0000 </r>
       <r>    1.9853    0.0000 </r>
       <r>    2.4607    0.0000 </r>
       <r>    3.7466    0.0000 </r>
       <r>    3.7844    0.0000 </r>
      </set>
      <set comment="kpoint 9">
       <r>  -20.8183    1.0000 </r>
       <r>  -18.0619    1.0000 </r>
       <r>  -17.9860    1.0000 </r>
       <r>  -17.5485    1.0000 </r>
       <r>  -17.4908    1.0000 </r>
       <r>  -16.7977    1.0000 </r>
       <r>   -9.0827    1.0000 </r>
       <r>   -7.5147    1.0000 </r>
       <r>   -7.3783    1.0000 </r>
       <r>   -0.3538    0.0000 </r>
       <r>    1.1387    0.0000 </r>
       <r>    2.1407    0.0000 </r>
       <r>    2.6219    0.0000 </r>
       <r>    2.9291    0.0000 </r>
       <r>    4.1299    0.0000 </r>
       <r>    4.1355    0.0000 </r>
      </set>
      <set comment="kpoint 10">
       <r>  -20.6097    1.0000 </r>
       <r>  -17.9525    1.0000 </r>
       <r>  -17.8352    1.0000 </r>
       <r>  -17.5854    1.0000 </r>
       <r>  -17.4978    1.0000 </r>
       <r>  -16.6899    1.0000 </r>
       <r>  -10.3073    1.0000 </r>
       <r>   -8.0478    1.0000 </r>
       <r>   -6.9031    1.0000 </r>
       <r>    0.3865    0.0000 </r>
       <r>    1.0846    0.0000 </r>
       <r>    3.0216    0.0000 </r>
       <r>    3.3108    0.0000 </r>
       <r>    3.6856    0.0000 </r>
       <r>    4.3355    0.0000 </r>
       <r>    4.8448    0.0000 </r>
      </set>
      <set comment="kpoint 11">
       <r>  -20.4632    1.0000 </r>
       <r>  -17.8552    1.0000 </r>
       <r>  -17.6968    1.0000 </r>
       <r>  -17.6127    1.0000 </r>
       <r>  -17.5032    1.0000 </r>
       <r>  -16.5343    1.0000 </r>
       <r>  -11.2707    1.0000 </r>
       <r>   -8.4234    1.0000 </r>
       <r>   -6.4901    1.0000 </r>
       <r>    0.7758    0.0000 </r>
       <r>    0.8680    0.0000 </r>
       <r>    3.7100    0.0000 </r>
       <r>    4.4483    0.0000 </r>
       <r>    4.7235    0.0000 </r>
       <r>    5.2012    0.0000 </r>
       <r>    5.8027    0.0000 </r>
      </set>
      <set comment="kpoint 12">
       <r>  -20.4123    1.0000 </r>
       <r>  -17.8168    1.0000 </r>
       <r>  -17.6417    1.0000 </r>
       <r>  -17.6226    1.0000 </r>
       <r>  -17.5052    1.0000 </r>
       <r>  -16.4436    1.0000 </r>
       <r>  -11.6526    1.0000 </r>
       <r>   -8.5578    1.0000 </r>
       <r>   -6.3212    1.0000 </r>
       <r>    0.7403    0.0000 </r>
       <r>    0.8732    0.0000 </r>
       <r>    4.1425    0.0000 </r>
       <r>    5.4624    0.0000 </r>
       <r>    5.7114    0.0000 </r>
       <r>    6.0348    0.0000 </r>
       <r>    6.1354    0.0000 </r>
      </set>
      <set comment="kpoint 13">
       <r>  -20.4632    1.0000 </r>
       <r>  -17.8554    1.0000 </r>
       <r>  -17.6965    1.0000 </r>
       <r>  -17.6126    1.0000 </r>
       <r>  -17.5032    1.0000 </r>
       <r>  -16.5342    1.0000 </r>
       <r>  -11.2707    1.0000 </r>
       <r>   -8.4235    1.0000 </r>
       <r>   -6.4901    1.0000 </r>
       <r>    0.7758    0.0000 </r>
       <r>    0.8681    0.0000 </r>
       <r>    3.7098    0.0000 </r>
       <r>    4.4485    0.0000 </r>
       <r>    4.7236    0.0000 </r>
       <r>    5.2011    0.0000 </r>
       <r>    5.8028    0.0000 </r>
      </set>
      <set comment="kpoint 14">
       <r>  -20.6098    1.0000 </r>
       <r>  -17.9529    1.0000 </r>
       <r>  -17.8348    1.0000 </r>
       <r>  -17.5853    1.0000 </r>
       <r>  -17.4979    1.0000 </r>
       <r>  -16.6898    1.0000 </r>
       <r>  -10.3071    1.0000 </r>
       <r>   -8.0480    1.0000 </r>
       <r>   -6.9030    1.0000 </r>
       <r>    0.3866    0.0000 </r>
       <r>    1.0848    0.0000 </r>
       <r>    3.0217    0.0000 </r>
       <r>    3.3108    0.0000 </r>
       <r>    3.6857    0.0000 </r>
       <r>    4.3349    0.0000 </r>
       <r>    4.8449    0.0000 </r>
      </set>
      <set comment="kpoint 15">
       <r>  -20.8183    1.0000 </r>
       <r>  -18.0623    1.0000 </r>
       <r>  -17.9856    1.0000 </r>
       <r>  -17.5484    1.0000 </r>
       <r>  -17.4909    1.0000 </r>
       <r>  -16.7976    1.0000 </r>
       <r>   -9.0822    1.0000 </r>
       <r>   -7.5152    1.0000 </r>
       <r>   -7.3783    1.0000 </r>
       <r>   -0.3538    0.0000 </r>
       <r>    1.1389    0.0000 </r>
       <r>    2.1408    0.0000 </r>
       <r>    2.6220    0.0000 </r>
       <r>    2.9292    0.0000 </r>
       <r>    4.1294    0.0000 </r>
       <r>    4.1355    0.0000 </r>
      </set>
      <set comment="kpoint 16">
       <r>  -21.0195    1.0000 </r>
       <r>  -18.1370    1.0000 </r>
       <r>  -18.1009    1.0000 </r>
       <r>  -17.5133    1.0000 </r>
       <r>  -17.4846    1.0000 </r>
       <r>  -16.8558    1.0000 </r>
       <r>   -7.8854    1.0000 </r>
       <r>   -7.7681    1.0000 </r>
       <r>   -6.9747    1.0000 </r>
       <r>   -1.2169    0.0000 </r>
       <r>    0.9913    0.0000 </r>
       <r>    1.4962    0.0000 </r>
       <r>    1.9854    0.0000 </r>
       <r>    2.4608    0.0000 </r>
       <r>    3.7467    0.0000 </r>
       <r>    3.7845    0.0000 </r>
      </set>
      <set comment="kpoint 17">
       <r>  -20.9643    1.0000 </r>
       <r>  -18.1053    1.0000 </r>
       <r>  -18.0847    1.0000 </r>
       <r>  -17.5240    1.0000 </r>
       <r>  -17.4852    1.0000 </r>
       <r>  -16.8429    1.0000 </r>
       <r>   -8.2794    1.0000 </r>
       <r>   -7.6658    1.0000 </r>
       <r>   -7.0508    1.0000 </r>
       <r>   -0.9964    0.0000 </r>
       <r>    1.0444    0.0000 </r>
       <r>    1.6566    0.0000 </r>
       <r>    2.1402    0.0000 </r>
       <r>    2.5756    0.0000 </r>
       <r>    3.8333    0.0000 </r>
       <r>    3.9011    0.0000 </r>
      </set>
      <set comment="kpoint 18">
       <r>  -20.8182    1.0000 </r>
       <r>  -18.0620    1.0000 </r>
       <r>  -17.9860    1.0000 </r>
       <r>  -17.5486    1.0000 </r>
       <r>  -17.4908    1.0000 </r>
       <r>  -16.7977    1.0000 </r>
       <r>   -9.0834    1.0000 </r>
       <r>   -7.5140    1.0000 </r>
       <r>   -7.3783    1.0000 </r>
       <r>   -0.3536    0.0000 </r>
       <r>    1.1386    0.0000 </r>
       <r>    2.1407    0.0000 </r>
       <r>    2.6220    0.0000 </r>
       <r>    2.9290    0.0000 </r>
       <r>    4.1301    0.0000 </r>
       <r>    4.1355    0.0000 </r>
      </set>
      <set comment="kpoint 19">
       <r>  -20.6337    1.0000 </r>
       <r>  -17.9943    1.0000 </r>
       <r>  -17.8394    1.0000 </r>
       <r>  -17.5771    1.0000 </r>
       <r>  -17.5007    1.0000 </r>
       <r>  -16.6990    1.0000 </r>
       <r>   -9.9912    1.0000 </r>
       <r>   -8.2420    1.0000 </r>
       <r>   -6.9682    1.0000 </r>
       <r>    0.5220    0.0000 </r>
       <r>    1.1359    0.0000 </r>
       <r>    2.9371    0.0000 </r>
       <r>    3.3462    0.0000 </r>
       <r>    3.5639    0.0000 </r>
       <r>    4.1280    0.0000 </r>
       <r>    4.7334    0.0000 </r>
      </set>
      <set comment="kpoint 20">
       <r>  -20.4752    1.0000 </r>
       <r>  -17.9034    1.0000 </r>
       <r>  -17.7131    1.0000 </r>
       <r>  -17.6013    1.0000 </r>
       <r>  -17.5111    1.0000 </r>
       <r>  -16.5274    1.0000 </r>
       <r>  -10.8479    1.0000 </r>
       <r>   -8.8858    1.0000 </r>
       <r>   -6.5474    1.0000 </r>
       <r>    1.0052    0.0000 </r>
       <r>    1.2918    0.0000 </r>
       <r>    3.7169    0.0000 </r>
       <r>    4.1394    0.0000 </r>
       <r>    4.4932    0.0000 </r>
       <r>    4.8765    0.0000 </r>
       <r>    5.5989    0.0000 </r>
      </set>
      <set comment="kpoint 21">
       <r>  -20.3881    1.0000 </r>
       <r>  -17.8293    1.0000 </r>
       <r>  -17.6567    1.0000 </r>
       <r>  -17.6150    1.0000 </r>
       <r>  -17.5177    1.0000 </r>
       <r>  -16.3549    1.0000 </r>
       <r>  -11.4138    1.0000 </r>
       <r>   -9.2387    1.0000 </r>
       <r>   -6.2708    1.0000 </r>
       <r>    0.8791    0.0000 </r>
       <r>    1.6512    0.0000 </r>
       <r>    4.2383    0.0000 </r>
       <r>    5.3348    0.0000 </r>
       <r>    5.5266    0.0000 </r>
       <r>    5.9623    0.0000 </r>
       <r>    6.3263    0.0000 </r>
      </set>
      <set comment="kpoint 22">
       <r>  -20.3882    1.0000 </r>
       <r>  -17.8295    1.0000 </r>
       <r>  -17.6565    1.0000 </r>
       <r>  -17.6150    1.0000 </r>
       <r>  -17.5177    1.0000 </r>
       <r>  -16.3548    1.0000 </r>
       <r>  -11.4137    1.0000 </r>
       <r>   -9.2388    1.0000 </r>
       <r>   -6.2708    1.0000 </r>
       <r>    0.8792    0.0000 </r>
       <r>    1.6513    0.0000 </r>
       <r>    4.2378    0.0000 </r>
       <r>    5.3348    0.0000 </r>
       <r>    5.5270    0.0000 </r>
       <r>    5.9627    0.0000 </r>
       <r>    6.3266    0.0000 </r>
      </set>
      <set comment="kpoint 23">
       <r>  -20.4754    1.0000 </r>
       <r>  -17.9038    1.0000 </r>
       <r>  -17.7127    1.0000 </r>
       <r>  -17.6013    1.0000 </r>
       <r>  -17.5112    1.0000 </r>
       <r>  -16.5271    1.0000 </r>
       <r>  -10.8476    1.0000 </r>
       <r>   -8.8862    1.0000 </r>
       <r>   -6.5474    1.0000 </r>
       <r>    1.0056    0.0000 </r>
       <r>    1.2919    0.0000 </r>
       <r>    3.7164    0.0000 </r>
       <r>    4.1396    0.0000 </r>
       <r>    4.4935    0.0000 </r>
       <r>    4.8761    0.0000 </r>
       <r>    5.5991    0.0000 </r>
      </set>
      <set comment="kpoint 24">
       <r>  -20.6338    1.0000 </r>
       <r>  -17.9947    1.0000 </r>
       <r>  -17.8389    1.0000 </r>
       <r>  -17.5770    1.0000 </r>
       <r>  -17.5009    1.0000 </r>
       <r>  -16.6988    1.0000 </r>
       <r>   -9.9904    1.0000 </r>
       <r>   -8.2428    1.0000 </r>
       <r>   -6.9682    1.0000 </r>
       <r>    0.5219    0.0000 </r>
       <r>    1.1363    0.0000 </r>
       <r>    2.9374    0.0000 </r>
       <r>    3.3462    0.0000 </r>
       <r>    3.5642    0.0000 </r>
       <r>    4.1267    0.0000 </r>
       <r>    4.7337    0.0000 </r>
      </set>
      <set comment="kpoint 25">
       <r>  -20.7391    1.0000 </r>
       <r>  -17.9806    1.0000 </r>
       <r>  -17.9722    1.0000 </r>
       <r>  -17.5649    1.0000 </r>
       <r>  -17.4909    1.0000 </r>
       <r>  -16.7693    1.0000 </r>
       <r>   -9.6493    1.0000 </r>
       <r>   -7.5439    1.0000 </r>
       <r>   -7.2068    1.0000 </r>
       <r>   -0.1905    0.0000 </r>
       <r>    1.1347    0.0000 </r>
       <r>    2.4356    0.0000 </r>
       <r>    2.8081    0.0000 </r>
       <r>    3.1683    0.0000 </r>
       <r>    4.1236    0.0000 </r>
       <r>    4.3505    0.0000 </r>
      </set>
      <set comment="kpoint 26">
       <r>  -20.6096    1.0000 </r>
       <r>  -17.9527    1.0000 </r>
       <r>  -17.8352    1.0000 </r>
       <r>  -17.5855    1.0000 </r>
       <r>  -17.4977    1.0000 </r>
       <r>  -16.6901    1.0000 </r>
       <r>  -10.3082    1.0000 </r>
       <r>   -8.0468    1.0000 </r>
       <r>   -6.9030    1.0000 </r>
       <r>    0.3872    0.0000 </r>
       <r>    1.0842    0.0000 </r>
       <r>    3.0217    0.0000 </r>
       <r>    3.3109    0.0000 </r>
       <r>    3.6853    0.0000 </r>
       <r>    4.3351    0.0000 </r>
       <r>    4.8445    0.0000 </r>
      </set>
      <set comment="kpoint 27">
       <r>  -20.4751    1.0000 </r>
       <r>  -17.9035    1.0000 </r>
       <r>  -17.7131    1.0000 </r>
       <r>  -17.6014    1.0000 </r>
       <r>  -17.5111    1.0000 </r>
       <r>  -16.5275    1.0000 </r>
       <r>  -10.8484    1.0000 </r>
       <r>   -8.8852    1.0000 </r>
       <r>   -6.5474    1.0000 </r>
       <r>    1.0049    0.0000 </r>
       <r>    1.2924    0.0000 </r>
       <r>    3.7170    0.0000 </r>
       <r>    4.1393    0.0000 </r>
       <r>    4.4931    0.0000 </r>
       <r>    4.8762    0.0000 </r>
       <r>    5.5987    0.0000 </r>
      </set>
      <set comment="kpoint 28">
       <r>  -20.3784    1.0000 </r>
       <r>  -17.8373    1.0000 </r>
       <r>  -17.6671    1.0000 </r>
       <r>  -17.6095    1.0000 </r>
       <r>  -17.5250    1.0000 </r>
       <r>  -16.3164    1.0000 </r>
       <r>  -11.1844    1.0000 </r>
       <r>   -9.6523    1.0000 </r>
       <r>   -6.2547    1.0000 </r>
       <r>    0.9677    0.0000 </r>
       <r>    2.0562    0.0000 </r>
       <r>    4.3212    0.0000 </r>
       <r>    5.2393    0.0000 </r>
       <r>    5.3825    0.0000 </r>
       <r>    5.9505    0.0000 </r>
       <r>    6.1455    0.0000 </r>
      </set>
      <set comment="kpoint 29">
       <r>  -20.3438    1.0000 </r>
       <r>  -17.7975    1.0000 </r>
       <r>  -17.6705    1.0000 </r>
       <r>  -17.6115    1.0000 </r>
       <r>  -17.5311    1.0000 </r>
       <r>  -16.2112    1.0000 </r>
       <r>  -11.2927    1.0000 </r>
       <r>   -9.9687    1.0000 </r>
       <r>   -6.1401    1.0000 </r>
       <r>    0.9653    0.0000 </r>
       <r>    2.3121    0.0000 </r>
       <r>    4.8347    0.0000 </r>
       <r>    5.1776    0.0000 </r>
       <r>    6.3519    0.0000 </r>
       <r>    6.9781    0.0000 </r>
[...]
       </set>
       <set comment="band 12">
        <r>  0.0628  0.0398  0.0000  0.0000  0.0000  0.0000  0.0115  0.0000  0.0316 </r>
        <r>  0.0045  0.0465  0.0000  0.0000  0.0000  0.0000  0.0000  0.0000  0.0000 </r>
       </set>
       <set comment="band 13">
        <r>  0.0076  0.0079  0.0000  0.0000  0.0000  0.0000  0.0028  0.0000  0.0062 </r>
        <r>  0.0010  0.0137  0.0000  0.0000  0.0000  0.0000  0.0000  0.0000  0.0000 </r>
       </set>
       <set comment="band 14">
        <r>  0.0000  0.0000  0.0473  0.0000  0.0000  0.0025  0.0000  0.0000  0.0000 </r>
        <r>  0.0000  0.0001  0.0009  0.0000  0.0000  0.0000  0.0000  0.0000  0.0000 </r>
       </set>
       <set comment="band 15">
        <r>  0.0239  0.0519  0.0000  0.0000  0.0000  0.0000  0.0157  0.0000  0.0299 </r>
        <r>  0.0103  0.1417  0.0000  0.0000  0.0000  0.0000  0.0000  0.0000  0.0000 </r>
       </set>
       <set comment="band 16">
        <r>  0.0000  0.0000  0.0409  0.0000  0.0000  0.0040  0.0000  0.0000  0.0000 </r>
        <r>  0.0000  0.0000  0.0038  0.0000  0.0000  0.0000  0.0000  0.0000  0.0000 </r>
       </set>
      </set>
      <set comment="kpoint 32">
       <set comment="band 1">
        <r>  0.0292  0.0507  0.0000  0.0036  0.0175  0.0000  0.0389  0.0000  0.2634 </r>
        <r>  0.4472  0.0006  0.0000  0.0000  0.0000  0.0000  0.0000  0.0000  0.0000 </r>
       </set>
       <set comment="band 2">
        <r>  0.0017  0.0001  0.0000  0.0023  0.8238  0.0000  0.0748  0.0000  0.0708 </r>
        <r>  0.0003  0.0019  0.0000  0.0166  0.0000  0.0000  0.0000  0.0000  0.0000 </r>
       </set>
       <set comment="band 3">
        <r>  0.0065  0.0014  0.0000  0.0003  0.0955  0.0001  0.7119  0.0000  0.1547 </r>
        <r>  0.0022  0.0170  0.0000  0.0011  0.0000  0.0000  0.0000  0.0000  0.0000 </r>
       </set>
       <set comment="band 4">
        <r>  0.0000  0.0000  0.0000  0.0000  0.0000  0.9528  0.0000  0.0249  0.0000 </r>
        <r>  0.0000  0.0000  0.0058  0.0000  0.0000  0.0000  0.0000  0.0000  0.0000 </r>
       </set>
       <set comment="band 5">
        <r>  0.0000  0.0000  0.0000  0.0000  0.0000  0.0254  0.0000  0.9656  0.0000 </r>
        <r>  0.0000  0.0000  0.0001  0.0000  0.0000  0.0000  0.0000  0.0000  0.0000 </r>
       </set>
       <set comment="band 6">
        <r>  0.0188  0.0337  0.0000  0.0009  0.0389  0.0000  0.1501  0.0000  0.5068 </r>
        <r>  0.1593  0.0037  0.0000  0.0005  0.0000  0.0000  0.0000  0.0000  0.0000 </r>
       </set>
       <set comment="band 7">
        <r>  0.3365  0.0555  0.0000  0.0027  0.0007  0.0000  0.0270  0.0000  0.0276 </r>
        <r>  0.0150  0.3068  0.0000  0.0029  0.0000  0.0000  0.0000  0.0000  0.0000 </r>
       </set>
       <set comment="band 8">
        <r>  0.0156  0.0160  0.0000  0.2181  0.0455  0.0000  0.0003  0.0000  0.0006 </r>
        <r>  0.0019  0.0070  0.0000  0.4791  0.0000  0.0000  0.0000  0.0000  0.0000 </r>
       </set>
       <set comment="band 9">
        <r>  0.0000  0.0000  0.0325  0.0000  0.0000  0.0452  0.0000  0.0028  0.0000 </r>
        <r>  0.0000  0.0000  0.5147  0.0000  0.0000  0.0000  0.0000  0.0000  0.0000 </r>
       </set>
       <set comment="band 10">
        <r>  0.2611  0.0703  0.0150  0.0048  0.0019  0.0005  0.0386  0.0000  0.0386 </r>
        <r>  0.0762  0.0923  0.0024  0.0345  0.0000  0.0000  0.0000  0.0000  0.0000 </r>
       </set>
       <set comment="band 11">
        <r>  0.0113  0.0033  0.3455  0.0002  0.0001  0.0125  0.0016  0.0004  0.0018 </r>
        <r>  0.0034  0.0036  0.0520  0.0015  0.0000  0.0000  0.0000  0.0000  0.0000 </r>
       </set>
       <set comment="band 12">
        <r>  0.0458  0.0407  0.0000  0.0014  0.0043  0.0000  0.0195  0.0000  0.0379 </r>
        <r>  0.0094  0.1099  0.0000  0.0072  0.0000  0.0000  0.0000  0.0000  0.0000 </r>
       </set>
       <set comment="band 13">
        <r>  0.0014  0.0037  0.0000  0.0002  0.0003  0.0000  0.0017  0.0000  0.0027 </r>
        <r>  0.0010  0.0128  0.0000  0.0002  0.0000  0.0000  0.0000  0.0000  0.0000 </r>
       </set>
       <set comment="band 14">
        <r>  0.0000  0.0000  0.0416  0.0000  0.0000  0.0040  0.0000  0.0003  0.0000 </r>
        <r>  0.0000  0.0001  0.0072  0.0000  0.0000  0.0000  0.0000  0.0000  0.0000 </r>
       </set>
       <set comment="band 15">
        <r>  0.0209  0.0344  0.0000  0.0029  0.0023  0.0000  0.0103  0.0000  0.0176 </r>
        <r>  0.0071  0.1147  0.0000  0.0004  0.0000  0.0000  0.0000  0.0000  0.0000 </r>
       </set>
       <set comment="band 16">
        <r>  0.0000  0.0000  0.0238  0.0000  0.0000  0.0081  0.0000  0.0013  0.0000 </r>
        <r>  0.0000  0.0000  0.0160  0.0000  0.0000  0.0000  0.0000  0.0000  0.0000 </r>
       </set>
      </set>
      <set comment="kpoint 33">
       <set comment="band 1">
        <r>  0.0122  0.0478  0.0000  0.0132  0.0672  0.0000  0.0169  0.0000  0.2577 </r>
        <r>  0.4426  0.0003  0.0000  0.0000  0.0000  0.0000  0.0000  0.0000  0.0000 </r>
       </set>
       <set comment="band 2">
        <r>  0.0021  0.0000  0.0000  0.0013  0.7015  0.0000  0.1073  0.0000  0.1648 </r>
        <r>  0.0002  0.0011  0.0000  0.0134  0.0000  0.0000  0.0000  0.0000  0.0000 </r>
       </set>
       <set comment="band 3">
        <r>  0.0054  0.0006  0.0000  0.0002  0.0746  0.0001  0.8007  0.0000  0.0965 </r>
        <r>  0.0002  0.0143  0.0000  0.0011  0.0000  0.0000  0.0000  0.0000  0.0000 </r>
       </set>
       <set comment="band 4">
        <r>  0.0000  0.0000  0.0000  0.0000  0.0000  0.8740  0.0001  0.1032  0.0000 </r>
        <r>  0.0000  0.0000  0.0063  0.0000  0.0000  0.0000  0.0000  0.0000  0.0000 </r>
       </set>
       <set comment="band 5">
        <r>  0.0000  0.0000  0.0000  0.0000  0.0000  0.1050  0.0000  0.8849  0.0000 </r>
        <r>  0.0000  0.0000  0.0001  0.0000  0.0000  0.0000  0.0000  0.0000  0.0000 </r>
       </set>
       <set comment="band 6">
        <r>  0.0080  0.0368  0.0000  0.0044  0.1438  0.0000  0.0435  0.0000  0.4914 </r>
        <r>  0.1843  0.0018  0.0000  0.0010  0.0000  0.0000  0.0000  0.0000  0.0000 </r>
       </set>
       <set comment="band 7">
        <r>  0.3727  0.0385  0.0000  0.0064  0.0008  0.0000  0.0326  0.0000  0.0073 </r>
        <r>  0.0045  0.2994  0.0000  0.0131  0.0000  0.0000  0.0000  0.0000  0.0000 </r>
       </set>
       <set comment="band 8">
        <r>  0.0397  0.0512  0.0000  0.1869  0.0249  0.0000  0.0012  0.0000  0.0009 </r>
        <r>  0.0034  0.0264  0.0000  0.4138  0.0000  0.0000  0.0000  0.0000  0.0000 </r>
       </set>
       <set comment="band 9">
        <r>  0.0000  0.0000  0.0142  0.0000  0.0000  0.0439  0.0000  0.0109  0.0000 </r>
        <r>  0.0000  0.0000  0.5394  0.0000  0.0000  0.0000  0.0000  0.0000  0.0000 </r>
       </set>
       <set comment="band 10">
        <r>  0.0002  0.0000  0.4241  0.0000  0.0000  0.0082  0.0000  0.0005  0.0000 </r>
        <r>  0.0000  0.0001  0.0206  0.0001  0.0000  0.0000  0.0000  0.0000  0.0000 </r>
       </set>
       <set comment="band 11">
        <r>  0.2726  0.0374  0.0003  0.0071  0.0035  0.0000  0.0552  0.0000  0.0271 </r>
        <r>  0.0425  0.1205  0.0000  0.1136  0.0000  0.0000  0.0000  0.0000  0.0000 </r>
       </set>
       <set comment="band 12">
        <r>  0.0181  0.0456  0.0000  0.0054  0.0165  0.0000  0.0157  0.0000  0.0501 </r>
        <r>  0.0202  0.1573  0.0000  0.0218  0.0000  0.0000  0.0000  0.0000  0.0000 </r>
       </set>
       <set comment="band 13">
        <r>  0.0000  0.0000  0.0349  0.0000  0.0000  0.0241  0.0000  0.0155  0.0000 </r>
        <r>  0.0000  0.0001  0.0268  0.0000  0.0000  0.0000  0.0000  0.0000  0.0000 </r>
       </set>
       <set comment="band 14">
        <r>  0.0031  0.0042  0.0000  0.0004  0.0010  0.0000  0.0007  0.0000  0.0030 </r>
        <r>  0.0007  0.0115  0.0000  0.0009  0.0000  0.0000  0.0000  0.0000  0.0000 </r>
       </set>
       <set comment="band 15">
        <r>  0.0236  0.0178  0.0000  0.0010  0.0043  0.0000  0.0026  0.0000  0.0120 </r>
        <r>  0.0018  0.0424  0.0000  0.0067  0.0000  0.0000  0.0000  0.0000  0.0000 </r>
       </set>
       <set comment="band 16">
        <r>  0.0000  0.0000  0.0106  0.0000  0.0000  0.0161  0.0000  0.0145  0.0000 </r>
        <r>  0.0000  0.0000  0.0068  0.0000  0.0000  0.0000  0.0000  0.0000  0.0000 </r>
       </set>
      </set>
      <set comment="kpoint 34">
       <set comment="band 1">
        <r>  0.0019  0.0400  0.0000  0.0255  0.1349  0.0000  0.0028  0.0000  0.2157 </r>
        <r>  0.4405  0.0001  0.0000  0.0000  0.0000  0.0000  0.0000  0.0000  0.0000 </r>
       </set>
       <set comment="band 2">
        <r>  0.0008  0.0002  0.0000  0.0007  0.5861  0.0000  0.0500  0.0000  0.3461 </r>
        <r>  0.0000  0.0002  0.0000  0.0087  0.0000  0.0000  0.0000  0.0000  0.0000 </r>
       </set>
       <set comment="band 3">
        <r>  0.0068  0.0001  0.0000  0.0000  0.0155  0.0000  0.9069  0.0000  0.0456 </r>
        <r>  0.0000  0.0133  0.0000  0.0042  0.0000  0.0000  0.0000  0.0000  0.0000 </r>
       </set>
       <set comment="band 4">
        <r>  0.0000  0.0000  0.0000  0.0000  0.0000  0.6849  0.0000  0.2924  0.0000 </r>
        <r>  0.0000  0.0000  0.0067  0.0000  0.0000  0.0000  0.0000  0.0000  0.0000 </r>
       </set>
       <set comment="band 5">
        <r>  0.0000  0.0000  0.0000  0.0000  0.0000  0.2964  0.0000  0.6926  0.0000 </r>
        <r>  0.0000  0.0000  0.0001  0.0000  0.0000  0.0000  0.0000  0.0000  0.0000 </r>
       </set>
       <set comment="band 6">
        <r>  0.0014  0.0297  0.0000  0.0131  0.2654  0.0000  0.0058  0.0000  0.4062 </r>
        <r>  0.1988  0.0002  0.0000  0.0004  0.0000  0.0000  0.0000  0.0000  0.0000 </r>
       </set>
       <set comment="band 7">
        <r>  0.4264  0.0142  0.0000  0.0027  0.0003  0.0000  0.0355  0.0000  0.0001 </r>
        <r>  0.0005  0.2546  0.0000  0.0600  0.0000  0.0000  0.0000  0.0000  0.0000 </r>
       </set>
       <set comment="band 8">
        <r>  0.0223  0.1036  0.0000  0.1572  0.0077  0.0000  0.0010  0.0000  0.0000 </r>
        <r>  0.0010  0.0909  0.0000  0.3225  0.0000  0.0000  0.0000  0.0000  0.0000 </r>
       </set>
       <set comment="band 9">
        <r>  0.0000  0.0000  0.0024  0.0000  0.0000  0.0368  0.0000  0.0223  0.0000 </r>
        <r>  0.0000  0.0000  0.5548  0.0000  0.0000  0.0000  0.0000  0.0000  0.0000 </r>
       </set>
       <set comment="band 10">
        <r>  0.0001  0.0000  0.4767  0.0000  0.0000  0.0017  0.0000  0.0000  0.0000 </r>
        <r>  0.0000  0.0001  0.0034  0.0001  0.0000  0.0000  0.0000  0.0000  0.0000 </r>
       </set>
       <set comment="band 11">
        <r>  0.2751  0.0055  0.0002  0.0013  0.0008  0.0000  0.0737  0.0000  0.0046 </r>
        <r>  0.0069  0.1699  0.0000  0.1670  0.0000  0.0000  0.0000  0.0000  0.0000 </r>
       </set>
       <set comment="band 12">
        <r>  0.0000  0.0372  0.0000  0.0009  0.0377  0.0002  0.0025  0.0002  0.0693 </r>
        <r>  0.0156  0.1333  0.0000  0.0723  0.0000  0.0000  0.0000  0.0000  0.0000 </r>
       </set>
       <set comment="band 13">
        <r>  0.0000  0.0002  0.0082  0.0000  0.0002  0.0526  0.0000  0.0491  0.0003 </r>
        <r>  0.0001  0.0005  0.0058  0.0003  0.0000  0.0000  0.0000  0.0000  0.0000 </r>
       </set>
       <set comment="band 14">
        <r>  0.0145  0.0032  0.0000  0.0209  0.0170  0.0000  0.0000  0.0000  0.0018 </r>
        <r>  0.0325  0.0019  0.0000  0.0304  0.0000  0.0000  0.0000  0.0000  0.0000 </r>
       </set>
       <set comment="band 15">
        <r>  0.0021  0.0005  0.0000  0.0002  0.0017  0.0000  0.0000  0.0000  0.0016 </r>
        <r>  0.0000  0.0054  0.0000  0.0007  0.0000  0.0000  0.0000  0.0000  0.0000 </r>
       </set>
       <set comment="band 16">
        <r>  0.0001  0.0019  0.0000  0.0035  0.0010  0.0000  0.0000  0.0000  0.0000 </r>
        <r>  0.0043  0.0001  0.0000  0.0010  0.0000  0.0000  0.0000  0.0000  0.0000 </r>
       </set>
      </set>
      <set comment="kpoint 35">
       <set comment="band 1">
        <r>  0.0239  0.0550  0.0000  0.0000  0.0000  0.0000  0.0324  0.0000  0.2999 </r>
        <r>  0.4429  0.0008  0.0000  0.0000  0.0000  0.0000  0.0000  0.0000  0.0000 </r>
       </set>
       <set comment="band 2">
        <r>  0.0000  0.0000  0.0000  0.0030  0.9755  0.0000  0.0000  0.0000  0.0000 </r>
        <r>  0.0000  0.0000  0.0000  0.0172  0.0000  0.0000  0.0000  0.0000  0.0000 </r>
       </set>
       <set comment="band 3">
        <r>  0.0059  0.0014  0.0000  0.0000  0.0000  0.0004  0.8636  0.0000  0.1022 </r>
        <r>  0.0013  0.0168  0.0000  0.0000  0.0000  0.0000  0.0000  0.0000  0.0000 </r>
       </set>
       <set comment="band 4">
        <r>  0.0000  0.0000  0.0000  0.0000  0.0000  0.9765  0.0004  0.0000  0.0001 </r>
        <r>  0.0000  0.0000  0.0060  0.0000  0.0000  0.0000  0.0000  0.0000  0.0000 </r>
       </set>
       <set comment="band 5">
        <r>  0.0000  0.0000  0.0000  0.0000  0.0000  0.0000  0.0000  0.9914  0.0000 </r>
        <r>  0.0000  0.0000  0.0000  0.0000  0.0000  0.0000  0.0000  0.0000  0.0000 </r>
       </set>
       <set comment="band 6">
        <r>  0.0095  0.0423  0.0000  0.0000  0.0000  0.0000  0.0726  0.0000  0.6056 </r>
        <r>  0.1743  0.0032  0.0000  0.0000  0.0000  0.0000  0.0000  0.0000  0.0000 </r>
       </set>
       <set comment="band 7">
        <r>  0.3581  0.0506  0.0000  0.0000  0.0000  0.0000  0.0341  0.0000  0.0128 </r>
        <r>  0.0046  0.3049  0.0000  0.0000  0.0000  0.0000  0.0000  0.0000  0.0000 </r>
       </set>
       <set comment="band 8">
        <r>  0.0000  0.0000  0.0000  0.2396  0.0455  0.0000  0.0000  0.0000  0.0000 </r>
        <r>  0.0000  0.0000  0.0000  0.5091  0.0000  0.0000  0.0000  0.0000  0.0000 </r>
       </set>
       <set comment="band 9">
        <r>  0.0000  0.0000  0.0253  0.0000  0.0000  0.0504  0.0000  0.0000  0.0000 </r>
        <r>  0.0000  0.0000  0.5256  0.0000  0.0000  0.0000  0.0000  0.0000  0.0000 </r>
       </set>
       <set comment="band 10">
        <r>  0.3026  0.0936  0.0013  0.0000  0.0000  0.0001  0.0318  0.0000  0.0595 </r>
        <r>  0.0859  0.0766  0.0001  0.0000  0.0000  0.0000  0.0000  0.0000  0.0000 </r>
       </set>
       <set comment="band 11">
        <r>  0.0009  0.0004  0.3781  0.0000  0.0000  0.0165  0.0001  0.0000  0.0002 </r>
        <r>  0.0003  0.0002  0.0289  0.0000  0.0000  0.0000  0.0000  0.0000  0.0000 </r>
       </set>
       <set comment="band 12">
        <r>  0.0191  0.0357  0.0000  0.0000  0.0000  0.0000  0.0336  0.0000  0.0293 </r>
        <r>  0.0106  0.1842  0.0000  0.0000  0.0000  0.0000  0.0000  0.0000  0.0000 </r>
       </set>
       <set comment="band 13">
        <r>  0.0025  0.0033  0.0001  0.0000  0.0000  0.0000  0.0019  0.0000  0.0017 </r>
        <r>  0.0006  0.0151  0.0001  0.0000  0.0000  0.0000  0.0000  0.0000  0.0000 </r>
       </set>
       <set comment="band 14">
        <r>  0.0000  0.0000  0.0256  0.0000  0.0000  0.0067  0.0000  0.0000  0.0000 </r>
        <r>  0.0000  0.0000  0.0281  0.0000  0.0000  0.0000  0.0000  0.0000  0.0000 </r>
       </set>
       <set comment="band 15">
        <r>  0.0243  0.0191  0.0001  0.0000  0.0000  0.0000  0.0071  0.0000  0.0081 </r>
        <r>  0.0017  0.0636  0.0000  0.0000  0.0000  0.0000  0.0000  0.0000  0.0000 </r>
       </set>
       <set comment="band 16">
        <r>  0.0000  0.0000  0.0071  0.0000  0.0000  0.0084  0.0000  0.0000  0.0000 </r>
        <r>  0.0000  0.0000  0.0296  0.0000  0.0000  0.0000  0.0000  0.0000  0.0000 </r>
       </set>
      </set>
      <set comment="kpoint 36">
       <set comment="band 1">
        <r>  0.0176  0.0540  0.0000  0.0036  0.0178  0.0000  0.0241  0.0000  0.2980 </r>
        <r>  0.4415  0.0007  0.0000  0.0000  0.0000  0.0000  0.0000  0.0000  0.0000 </r>
       </set>
       <set comment="band 2">
        <r>  0.0007  0.0000  0.0000  0.0025  0.8976  0.0000  0.0395  0.0000  0.0379 </r>
        <r>  0.0002  0.0003  0.0000  0.0157  0.0000  0.0000  0.0000  0.0000  0.0000 </r>
       </set>
       <set comment="band 3">
        <r>  0.0051  0.0009  0.0000  0.0000  0.0206  0.0012  0.8673  0.0000  0.0830 </r>
        <r>  0.0002  0.0152  0.0000  0.0000  0.0000  0.0000  0.0000  0.0000  0.0000 </r>
       </set>
       <set comment="band 4">
        <r>  0.0000  0.0000  0.0000  0.0000  0.0000  0.9565  0.0010  0.0192  0.0002 </r>
        <r>  0.0000  0.0000  0.0062  0.0000  0.0000  0.0000  0.0000  0.0000  0.0000 </r>
       </set>
       <set comment="band 5">
        <r>  0.0000  0.0000  0.0000  0.0000  0.0000  0.0196  0.0000  0.9713  0.0000 </r>
        <r>  0.0000  0.0000  0.0001  0.0000  0.0000  0.0000  0.0000  0.0000  0.0000 </r>
       </set>
       <set comment="band 6">
        <r>  0.0053  0.0439  0.0000  0.0008  0.0434  0.0000  0.0342  0.0000  0.5949 </r>
        <r>  0.1836  0.0022  0.0000  0.0005  0.0000  0.0000  0.0000  0.0000  0.0000 </r>
       </set>
       <set comment="band 7">
        <r>  0.3688  0.0455  0.0000  0.0018  0.0000  0.0000  0.0362  0.0000  0.0046 </r>
        <r>  0.0005  0.3051  0.0000  0.0016  0.0000  0.0000  0.0000  0.0000  0.0000 </r>
       </set>
       <set comment="band 8">
        <r>  0.0170  0.0139  0.0000  0.2244  0.0372  0.0000  0.0004  0.0000  0.0007 </r>
        <r>  0.0022  0.0049  0.0000  0.4785  0.0000  0.0000  0.0000  0.0000  0.0000 </r>
       </set>
       <set comment="band 9">
        <r>  0.0000  0.0000  0.0185  0.0000  0.0000  0.0501  0.0000  0.0029  0.0000 </r>
        <r>  0.0000  0.0000  0.5348  0.0000  0.0000  0.0000  0.0000  0.0000  0.0000 </r>
       </set>
       <set comment="band 10">
        <r>  0.0041  0.0009  0.3963  0.0001  0.0000  0.0145  0.0005  0.0000  0.0007 </r>
        <r>  0.0009  0.0013  0.0169  0.0005  0.0000  0.0000  0.0000  0.0000  0.0000 </r>
       </set>
       <set comment="band 11">
        <r>  0.2924  0.0769  0.0053  0.0047  0.0023  0.0002  0.0362  0.0000  0.0544 </r>
        <r>  0.0712  0.0805  0.0002  0.0390  0.0000  0.0000  0.0000  0.0000  0.0000 </r>
       </set>
       <set comment="band 12">
        <r>  0.0084  0.0389  0.0000  0.0015  0.0033  0.0000  0.0346  0.0000  0.0323 </r>
        <r>  0.0144  0.2220  0.0000  0.0014  0.0000  0.0000  0.0000  0.0000  0.0000 </r>
       </set>
       <set comment="band 13">
        <r>  0.0001  0.0001  0.0131  0.0000  0.0000  0.0158  0.0000  0.0042  0.0001 </r>
        <r>  0.0000  0.0000  0.0541  0.0000  0.0000  0.0000  0.0000  0.0000  0.0000 </r>
       </set>
       <set comment="band 14">
        <r>  0.0260  0.0100  0.0001  0.0000  0.0008  0.0001  0.0018  0.0000  0.0056 </r>
        <r>  0.0005  0.0001  0.0002  0.0024  0.0000  0.0000  0.0000  0.0000  0.0000 </r>
       </set>
       <set comment="band 15">
        <r>  0.0010  0.0014  0.0000  0.0000  0.0001  0.0000  0.0005  0.0000  0.0009 </r>
        <r>  0.0002  0.0059  0.0000  0.0000  0.0000  0.0000  0.0000  0.0000  0.0000 </r>
       </set>
       <set comment="band 16">
        <r>  0.0059  0.0024  0.0000  0.0000  0.0002  0.0000  0.0006  0.0000  0.0014 </r>
        <r>  0.0003  0.0000  0.0000  0.0006  0.0000  0.0000  0.0000  0.0000  0.0000 </r>
       </set>
      </set>
     </set>
    </set>
   </array>
  </projected>
 </calculation>
 <structure name="finalpos" >
  <crystal>
   <varray name="basis" >
    <v>       3.21119900       0.00000000       0.00000000 </v>
    <v>      -1.60560000       2.78125200       0.00000000 </v>
    <v>       0.00000000       0.00000000      20.00530100 </v>
   </varray>
   <i name="volume">    178.67041687 </i>
   <varray name="rec_basis" >
    <v>       0.31141016       0.17977521       0.00000000 </v>
    <v>       0.00000000       0.35955030       0.00000000 </v>
    <v>       0.00000000       0.00000000       0.04998675 </v>
   </varray>
  </crystal>
  <varray name="positions" >
   <v>       0.33333100       0.66666100       0.49989900 </v>
   <v>       0.00003100       0.00006300       0.50010100 </v>
  </varray>
 </structure>
</modeling>
