    2    2    1    1
  0.5643294E+01  0.2517827E-09  0.2517827E-09  0.2517827E-09  0.5000000E-15
  1.000000000000000E-004
  CAR 
 r-GeO2 ENCUT convergence test           
      8    120      8
 
  0.0000000E+00  0.0000000E+00  0.0000000E+00  0.2962963E-03
    1      -11.743527   1.000000
    2        9.801520   1.000000
    3        9.801522   1.000000
    4        9.801522   1.000000
    5       15.407054   0.000000
    6       15.407056   0.000000
    7       15.407058   0.000000
    8       23.248716   0.000000
 
  0.6666667E-01 -0.3295382E-17  0.0000000E+00  0.2370370E-02
    1      -11.620002   1.000000
    2        8.973858   1.000000
    3        9.586760   1.000000
    4        9.586761   1.000000
    5       15.688125   0.000000
    6       15.688127   0.000000
    7       15.906004   0.000000
    8       23.352280   0.000000
 
  0.1333333E+00 -0.6590764E-17  0.0000000E+00  0.2370370E-02
    1      -11.250267   1.000000
    2        7.116897   1.000000
    3        9.072978   1.000000
    4        9.072979   1.000000
    5       16.365606   0.000000
    6       16.365608   0.000000
    7       16.815284   0.000000
    8       23.656082   0.000000
 
  0.2000000E+00 -0.2235735E-16  0.0000000E+00  0.2370370E-02
    1      -10.637395   1.000000
    2        4.902976   1.000000
    3        8.472203   1.000000
    4        8.472204   1.000000
    5       17.132276   0.000000
    6       17.132277   0.000000
    7       17.581231   0.000000
    8       24.120816   0.000000
 
  0.2666667E+00  0.1781357E-17  0.0000000E+00  0.2370370E-02
    1       -9.787962   1.000000
    2        2.617031   1.000000
    3        7.917023   1.000000
    4        7.917024   1.000000
    5       17.746562   0.000000
    6       17.746563   0.000000
    7       18.103381   0.000000
    8       24.652217   0.000000
 
  0.3333333E+00 -0.8131428E-17  0.0000000E+00  0.2370370E-02
    1       -8.715882   1.000000
    2        0.397961   1.000000
    3        7.471291   1.000000
    4        7.471292   1.000000
    5       18.103221   0.000000
    6       18.103222   0.000000
    7       18.429956   0.000000
    8       25.117743   0.000000
 
  0.4000000E+00 -0.4471469E-16  0.0000000E+00  0.2370370E-02
    1       -7.460026   1.000000
    2       -1.650378   1.000000
    3        7.164182   1.000000
    4        7.164183   1.000000
    5       18.246159   0.000000
    6       18.246160   0.000000
    7       18.619385   0.000000
    8       25.411871   0.000000
 
  0.4666667E+00 -0.4454063E-16  0.0000000E+00  0.2370370E-02
    1       -6.216807   1.000000
    2       -3.297414   1.000000
    3        7.008360   1.000000
    4        7.008361   1.000000
    5       18.280696   0.000000
    6       18.280697   0.000000
    7       18.706908   0.000000
    8       25.537788   0.000000
 
  0.6666667E-01  0.6666667E-01  0.0000000E+00  0.1777778E-02
    1      -11.578837   1.000000
    2        9.177143   1.000000
    3        9.177143   1.000000
    4        9.403266   1.000000
    5       15.278224   0.000000
    6       16.173334   0.000000
    7       16.173335   0.000000
    8       23.345707   0.000000
 
  0.1333333E+00  0.6666667E-01  0.0000000E+00  0.7111111E-02
    1      -11.291243   1.000000
    2        7.738536   1.000000
    3        8.563898   1.000000
    4        9.186515   1.000000
    5       15.466789   0.000000
    6       16.973365   0.000000
    7       17.024165   0.000000
    8       23.457142   0.000000
 
  0.2000000E+00  0.6666667E-01  0.0000000E+00  0.7111111E-02
    1      -10.759409   1.000000
    2        5.667422   1.000000
    3        7.936314   1.000000
    4        8.718021   1.000000
    5       16.093839   0.000000
    6       17.810967   0.000000
    7       17.844690   0.000000
    8       23.668579   0.000000
 
  0.2666667E+00  0.6666667E-01  0.0000000E+00  0.7111111E-02
    1       -9.988698   1.000000
    2        3.424937   1.000000
    3        7.400552   1.000000
    4        8.126207   1.000000
    5       16.813894   0.000000
    6       18.431387   0.000000
    7       18.462587   0.000000
    8       23.986474   0.000000
 
  0.3333333E+00  0.6666667E-01  0.0000000E+00  0.7111111E-02
    1       -8.989909   1.000000
    2        1.195066   1.000000
    3        7.007659   1.000000
    4        7.549066   1.000000
    5       17.376051   0.000000
    6       18.801230   0.000000
    7       18.810958   0.000000
    8       24.446426   0.000000
 
  0.4000000E+00  0.6666667E-01  0.0000000E+00  0.7111111E-02
    1       -7.789592   1.000000
    2       -0.908580   1.000000
    3        6.779805   1.000000
    4        7.058545   1.000000
    5       17.723231   0.000000
    6       18.879776   0.000000
    7       19.014427   0.000000
    8       24.979578   0.000000
 
  0.4666667E+00  0.6666667E-01  0.0000000E+00  0.7111111E-02
    1       -6.492936   1.000000
    2       -2.734775   1.000000
    3        6.692505   1.000000
    4        6.723422   1.000000
    5       17.942209   0.000000
    6       18.778810   0.000000
    7       19.117001   0.000000
    8       25.396244   0.000000
 
 -0.4666667E+00  0.6666667E-01  0.0000000E+00  0.7111111E-02
    1       -5.875942   1.000000
    2       -3.485282   1.000000
    3        6.473199   1.000000
    4        6.835561   1.000000
    5       18.130374   0.000000
    6       18.607163   0.000000
    7       19.131624   0.000000
    8       25.549030   0.000000
 
 -0.4000000E+00  0.6666667E-01  0.0000000E+00  0.7111111E-02
    1       -6.919145   1.000000
    2       -2.174125   1.000000
    3        6.414868   1.000000
    4        7.106387   1.000000
    5       18.315392   0.000000
    6       18.397089   0.000000
    7       19.061815   0.000000
    8       25.406130   0.000000
 
 -0.3333333E+00  0.6666667E-01  0.0000000E+00  0.7111111E-02
    1       -8.209221   1.000000
    2       -0.225302   1.000000
    3        6.525678   1.000000
    4        7.519494   1.000000
    5       18.106331   0.000000
    6       18.439349   0.000000
    7       18.890123   0.000000
    8       25.007635   0.000000
 
 -0.2666667E+00  0.6666667E-01  0.0000000E+00  0.7111111E-02
    1       -9.347312   1.000000
    2        1.933320   1.000000
    3        6.806988   1.000000
    4        8.047845   1.000000
    5       17.652963   0.000000
    6       18.387985   0.000000
    7       18.563836   0.000000
    8       24.500662   0.000000
 
 -0.2000000E+00  0.6666667E-01  0.0000000E+00  0.7111111E-02
    1      -10.271748   1.000000
    2        4.182147   1.000000
    3        7.250442   1.000000
    4        8.643726   1.000000
    5       17.004893   0.000000
    6       17.979467   0.000000
    7       18.091513   0.000000
    8       24.053537   0.000000
 
 -0.1333333E+00  0.6666667E-01  0.0000000E+00  0.7111111E-02
    1      -10.963599   1.000000
    2        6.387596   1.000000
    3        7.834363   1.000000
    4        9.215311   1.000000
    5       16.277713   0.000000
    6       17.180497   0.000000
    7       17.483401   0.000000
    8       23.718210   0.000000
 
 -0.6666667E-01  0.6666667E-01  0.0000000E+00  0.3555556E-02
    1      -11.414406   1.000000
    2        8.215518   1.000000
    3        8.595804   1.000000
    4        9.595053   1.000000
    5       15.741163   0.000000
    6       16.325881   0.000000
    7       16.637299   0.000000
    8       23.481073   0.000000
 
  0.1333333E+00  0.1333333E+00  0.0000000E+00  0.1777778E-02
    1      -11.086150   1.000000
    2        7.895998   1.000000
    3        7.895999   1.000000
    4        8.308265   1.000000
    5       14.947299   0.000000
    6       17.872737   0.000000
    7       17.872737   0.000000
    8       23.133259   0.000000
 
  0.2000000E+00  0.1333333E+00  0.0000000E+00  0.7111111E-02
    1      -10.636596   1.000000
    2        6.320165   1.000000
    3        7.241610   1.000000
    4        8.003884   1.000000
    5       15.085745   0.000000
    6       18.787519   0.000000
    7       18.810957   0.000000
    8       22.748647   0.000000
 
  0.2666667E+00  0.1333333E+00  0.0000000E+00  0.7111111E-02
    1       -9.946961   1.000000
    2        4.257429   1.000000
    3        6.698602   1.000000
    4        7.507368   1.000000
    5       15.693191   0.000000
    6       19.483888   0.000000
    7       19.569707   0.000000
    8       22.504926   0.000000
 
  0.3333333E+00  0.1333333E+00  0.0000000E+00  0.7111111E-02
    1       -9.026060   1.000000
    2        2.101160   1.000000
    3        6.316510   1.000000
    4        6.871737   1.000000
    5       16.372161   0.000000
    6       19.929523   0.000000
    7       20.005288   0.000000
    8       22.679330   0.000000
 
  0.4000000E+00  0.1333333E+00  0.0000000E+00  0.7111111E-02
    1       -7.893455   1.000000
    2        0.001844   1.000000
    3        6.117896   1.000000
    4        6.241687   1.000000
    5       16.865662   0.000000
    6       20.101303   0.000000
    7       20.182810   0.000000
    8       23.391147   0.000000
 
  0.4666667E+00  0.1333333E+00  0.0000000E+00  0.7111111E-02
    1       -6.612408   1.000000
    2       -1.907533   1.000000
    3        5.699151   1.000000
    4        6.109443   1.000000
    5       17.193273   0.000000
    6       19.949968   0.000000
    7       20.302791   0.000000
    8       24.416652   0.000000
 
 -0.4666667E+00  0.1333333E+00  0.0000000E+00  0.7111111E-02
    1       -5.584201   1.000000
    2       -3.189538   1.000000
    3        5.291265   1.000000
    4        6.286887   1.000000
    5       17.488071   0.000000
    6       19.661662   0.000000
    7       20.329043   0.000000
    8       25.266086   0.000000
 
 -0.4000000E+00  0.1333333E+00  0.0000000E+00  0.7111111E-02
    1       -6.195377   1.000000
    2       -2.444319   1.000000
    3        5.047297   1.000000
    4        6.636397   1.000000
    5       17.822672   0.000000
    6       19.293639   0.000000
    7       20.273062   0.000000
    8       25.407743   0.000000
 
 -0.3333333E+00  0.1333333E+00  0.0000000E+00  0.7111111E-02
    1       -7.480077   1.000000
    2       -0.643830   1.000000
    3        4.986160   1.000000
    4        7.133163   1.000000
    5       18.174823   0.000000
    6       18.831572   0.000000
    7       20.112810   0.000000
    8       24.841764   0.000000
 
 -0.2666667E+00  0.1333333E+00  0.0000000E+00  0.7111111E-02
    1       -8.672563   1.000000
    2        1.417583   1.000000
    3        5.120541   1.000000
    4        7.736332   1.000000
    5       18.223771   0.000000
    6       18.436983   0.000000
    7       19.761732   0.000000
    8       24.124409   0.000000
 
 -0.2000000E+00  0.1333333E+00  0.0000000E+00  0.7111111E-02
    1       -9.666265   1.000000
    2        3.561662   1.000000
    3        5.468441   1.000000
    4        8.376356   1.000000
    5       17.472754   0.000000
    6       18.460666   0.000000
    7       19.091001   0.000000
    8       23.721065   0.000000
 
 -0.1333333E+00  0.1333333E+00  0.0000000E+00  0.3555556E-02
    1      -10.433783   1.000000
    2        5.455332   1.000000
    3        6.219352   1.000000
    4        8.931436   1.000000
    5       16.728535   0.000000
    6       18.142549   0.000000
    7       18.143510   0.000000
    8       23.676248   0.000000
 
  0.2000000E+00  0.2000000E+00  0.0000000E+00  0.1777778E-02
    1      -10.269935   1.000000
    2        6.559360   1.000000
    3        6.559360   1.000000
    4        6.710909   1.000000
    5       14.537832   0.000000
    6       19.883781   0.000000
    7       19.883781   0.000000
    8       21.688447   0.000000
 
  0.2666667E+00  0.2000000E+00  0.0000000E+00  0.7111111E-02
    1       -9.662854   1.000000
    2        4.906450   1.000000
    3        5.990587   1.000000
    4        6.411384   1.000000
    5       14.687648   0.000000
    6       20.770338   0.000000
    7       20.808954   0.000000
    8       20.874010   0.000000
 
  0.3333333E+00  0.2000000E+00  0.0000000E+00  0.7111111E-02
    1       -8.822777   1.000000
    2        2.968575   1.000000
    3        5.588676   1.000000
    4        5.812768   1.000000
    5       15.302869   0.000000
    6       20.572098   0.000000
    7       21.385475   0.000000
    8       21.415059   0.000000
 
  0.4000000E+00  0.2000000E+00  0.0000000E+00  0.7111111E-02
    1       -7.765203   1.000000
    2        0.980163   1.000000
    3        5.082320   1.000000
    4        5.379536   1.000000
    5       15.916204   0.000000
    6       21.071609   0.000000
    7       21.633967   0.000000
    8       21.726203   0.000000
 
  0.4666667E+00  0.2000000E+00  0.0000000E+00  0.7111111E-02
    1       -6.532291   1.000000
    2       -0.917246   1.000000
    3        4.385936   1.000000
    4        5.372532   1.000000
    5       16.327537   0.000000
    6       21.521776   0.000000
    7       21.881572   0.000000
    8       22.325966   0.000000
 
 -0.4666667E+00  0.2000000E+00  0.0000000E+00  0.7111111E-02
    1       -5.328810   1.000000
    2       -2.458593   1.000000
    3        3.811261   1.000000
    4        5.565060   1.000000
    5       16.667772   0.000000
    6       21.183093   0.000000
    7       21.931640   0.000000
    8       23.911786   0.000000
 
 -0.4000000E+00  0.2000000E+00  0.0000000E+00  0.7111111E-02
    1       -5.343681   1.000000
    2       -2.426109   1.000000
    3        3.406094   1.000000
    4        5.943456   1.000000
    5       17.068118   0.000000
    6       20.690784   0.000000
    7       21.893444   0.000000
    8       25.095487   0.000000
 
 -0.3333333E+00  0.2000000E+00  0.0000000E+00  0.7111111E-02
    1       -6.547523   1.000000
    2       -0.849229   1.000000
    3        3.201264   1.000000
    4        6.480614   1.000000
    5       17.551786   0.000000
    6       20.051731   0.000000
    7       21.742535   0.000000
    8       24.792153   0.000000
 
 -0.2666667E+00  0.2000000E+00  0.0000000E+00  0.7111111E-02
    1       -7.775205   1.000000
    2        1.062724   1.000000
    3        3.235346   1.000000
    4        7.129067   1.000000
    5       18.051406   0.000000
    6       19.243622   0.000000
    7       21.305931   0.000000
    8       23.895403   0.000000
 
 -0.2000000E+00  0.2000000E+00  0.0000000E+00  0.3555556E-02
    1       -8.828853   1.000000
    2        2.803450   1.000000
    3        3.770478   1.000000
    4        7.806998   1.000000
    5       18.318134   0.000000
    6       18.416157   0.000000
    7       20.335668   0.000000
    8       23.534259   0.000000
 
  0.2666667E+00  0.2666667E+00  0.0000000E+00  0.1777778E-02
    1       -9.138958   1.000000
    2        4.770663   1.000000
    3        5.387099   1.000000
    4        5.387099   1.000000
    5       14.176928   0.000000
    6       19.539916   0.000000
    7       21.949863   0.000000
    8       21.949863   0.000000
 
  0.3333333E+00  0.2666667E+00  0.0000000E+00  0.7111111E-02
    1       -8.381597   1.000000
    2        3.360981   1.000000
    3        4.853735   1.000000
    4        4.948319   1.000000
    5       14.386329   0.000000
    6       18.775728   0.000000
    7       22.790608   0.000000
    8       22.790714   0.000000
 
  0.4000000E+00  0.2666667E+00  0.0000000E+00  0.7111111E-02
    1       -7.403673   1.000000
    2        1.718071   1.000000
    3        4.027268   1.000000
    4        4.705044   1.000000
    5       15.010398   0.000000
    6       18.801004   0.000000
    7       23.214743   0.000000
    8       23.293971   0.000000
 
  0.4666667E+00  0.2666667E+00  0.0000000E+00  0.7111111E-02
    1       -6.235572   1.000000
    2        0.023163   1.000000
    3        3.134126   1.000000
    4        4.670120   1.000000
    5       15.523648   0.000000
    6       19.822191   0.000000
    7       23.220087   0.000000
    8       23.544471   0.000000
 
 -0.4666667E+00  0.2666667E+00  0.0000000E+00  0.7111111E-02
    1       -4.992979   1.000000
    2       -1.532008   1.000000
    3        2.358611   1.000000
    4        4.843692   1.000000
    5       15.887938   0.000000
    6       21.581452   0.000000
    7       22.887081   0.000000
    8       23.646161   0.000000
 
 -0.4000000E+00  0.2666667E+00  0.0000000E+00  0.7111111E-02
    1       -4.455532   1.000000
    2       -2.111149   1.000000
    3        1.781745   1.000000
    4        5.214280   1.000000
    5       16.297877   0.000000
    6       22.291407   0.000000
    7       23.364536   0.000000
    8       23.876605   0.000000
 
 -0.3333333E+00  0.2666667E+00  0.0000000E+00  0.7111111E-02
    1       -5.449697   1.000000
    2       -0.886063   1.000000
    3        1.461880   1.000000
    4        5.756183   1.000000
    5       16.827491   0.000000
    6       21.457418   0.000000
    7       23.480014   0.000000
    8       24.698162   0.000000
 
 -0.2666667E+00  0.2666667E+00  0.0000000E+00  0.3555556E-02
    1       -6.678699   1.000000
    2        0.562585   1.000000
    3        1.691331   1.000000
    4        6.422185   1.000000
    5       17.448979   0.000000
    6       20.403527   0.000000
    7       22.861368   0.000000
    8       23.963699   0.000000
 
  0.3333333E+00  0.3333333E+00  0.0000000E+00  0.1777778E-02
    1       -7.707790   1.000000
    2        2.609577   1.000000
    3        4.464960   1.000000
    4        4.464960   1.000000
    5       13.965308   0.000000
    6       17.559878   0.000000
    7       23.907000   0.000000
    8       23.907000   0.000000
 
  0.4000000E+00  0.3333333E+00  0.0000000E+00  0.7111111E-02
    1       -6.811960   1.000000
    2        1.407592   1.000000
    3        3.803371   1.000000
    4        4.175216   1.000000
    5       14.266716   0.000000
    6       17.045577   0.000000
    7       24.594226   0.000000
    8       24.629263   0.000000
 
  0.4666667E+00  0.3333333E+00  0.0000000E+00  0.7111111E-02
    1       -5.717950   1.000000
    2        0.169002   1.000000
    3        2.705995   1.000000
    4        4.095964   1.000000
    5       14.861716   0.000000
    6       17.509568   0.000000
    7       24.781000   0.000000
    8       24.998592   0.000000
 
 -0.4666667E+00  0.3333333E+00  0.0000000E+00  0.7111111E-02
    1       -4.498724   1.000000
    2       -1.032435   1.000000
    3        1.550570   1.000000
    4        4.230596   1.000000
    5       15.258136   0.000000
    6       19.072482   0.000000
    7       24.499383   0.000000
    8       25.127569   0.000000
 
 -0.4000000E+00  0.3333333E+00  0.0000000E+00  0.7111111E-02
    1       -3.616964   1.000000
    2       -1.804464   1.000000
    3        0.658133   1.000000
    4        4.570616   1.000000
    5       15.644582   0.000000
    6       21.223870   0.000000
    7       23.814153   0.000000
    8       25.108103   0.000000
 
 -0.3333333E+00  0.3333333E+00  0.0000000E+00  0.3555556E-02
    1       -4.287627   1.000000
    2       -1.164885   1.000000
    3        0.379868   1.000000
    4        5.093553   1.000000
    5       16.166609   0.000000
    6       22.772590   0.000000
    7       23.399451   0.000000
    8       24.877206   0.000000
 
  0.4000000E+00  0.4000000E+00  0.0000000E+00  0.1777778E-02
    1       -5.998934   1.000000
    2        0.344908   1.000000
    3        3.833584   1.000000
    4        3.833585   1.000000
    5       13.980636   0.000000
    6       16.021910   0.000000
    7       25.554830   0.000000
    8       25.554831   0.000000
 
  0.4666667E+00  0.4000000E+00  0.0000000E+00  0.7111111E-02
    1       -4.983904   1.000000
    2       -0.772064   1.000000
    3        3.237481   1.000000
    4        3.701582   1.000000
    5       14.386001   0.000000
    6       15.793674   0.000000
    7       25.954449   0.000000
    8       26.031994   0.000000
 
 -0.4666667E+00  0.4000000E+00  0.0000000E+00  0.7111111E-02
    1       -3.816978   1.000000
    2       -1.777625   1.000000
    3        2.126466   1.000000
    4        3.786098   1.000000
    5       14.834421   0.000000
    6       16.810221   0.000000
    7       25.764272   0.000000
    8       26.130825   0.000000
 
 -0.4000000E+00  0.4000000E+00  0.0000000E+00  0.3555556E-02
    1       -2.943166   1.000000
    2       -2.334129   1.000000
    3        0.983366   1.000000
    4        4.081965   1.000000
    5       15.164270   0.000000
    6       18.826480   0.000000
    7       25.023379   0.000000
    8       25.878279   0.000000
 
  0.4666667E+00  0.4666667E+00  0.0000000E+00  0.1777778E-02
    1       -4.047964   1.000000
    2       -1.907890   1.000000
    3        3.513464   1.000000
    4        3.513464   1.000000
    5       14.287271   0.000000
    6       14.947041   0.000000
    7       26.551602   0.000000
    8       26.551603   0.000000
 
 -0.4666667E+00  0.4666667E+00  0.0000000E+00  0.3555556E-02
    1       -2.966799   1.000000
    2       -2.923503   1.000000
    3        3.055892   1.000000
    4        3.542210   1.000000
    5       14.636075   0.000000
    6       15.164943   0.000000
    7       26.483012   0.000000
    8       26.583511   0.000000
 
  0.2000000E+00  0.1333333E+00  0.6666667E-01  0.7111111E-02
    1      -10.922566   1.000000
    2        6.837646   1.000000
    3        7.369615   1.000000
    4        8.925724   1.000000
    5       15.597214   0.000000
    6       17.837765   0.000000
    7       17.882386   0.000000
    8       23.381767   0.000000
 
  0.2666667E+00  0.1333333E+00  0.6666667E-01  0.1422222E-01
    1      -10.311775   1.000000
    2        4.959317   1.000000
    3        6.606050   1.000000
    4        8.480052   1.000000
    5       16.194149   0.000000
    6       18.535889   0.000000
    7       18.744106   0.000000
    8       23.316768   0.000000
 
  0.3333333E+00  0.1333333E+00  0.6666667E-01  0.1422222E-01
    1       -9.465735   1.000000
    2        2.785665   1.000000
    3        6.128722   1.000000
    4        7.881238   1.000000
    5       16.923382   0.000000
    6       18.879404   0.000000
    7       19.457278   0.000000
    8       23.470390   0.000000
 
  0.4000000E+00  0.1333333E+00  0.6666667E-01  0.1422222E-01
    1       -8.398867   1.000000
    2        0.627998   1.000000
    3        5.828755   1.000000
    4        7.279654   1.000000
    5       17.506110   0.000000
    6       18.945947   0.000000
    7       19.888930   0.000000
    8       24.012065   0.000000
 
  0.4666667E+00  0.1333333E+00  0.6666667E-01  0.1422222E-01
    1       -7.151202   1.000000
    2       -1.382285   1.000000
    3        5.692748   1.000000
    4        6.776808   1.000000
    5       17.861290   0.000000
    6       18.844444   0.000000
    7       20.107281   0.000000
    8       24.785076   0.000000
 
 -0.4666667E+00  0.1333333E+00  0.6666667E-01  0.1422222E-01
    1       -5.921194   1.000000
    2       -3.002944   1.000000
    3        5.674288   1.000000
    4        6.465946   1.000000
    5       18.035191   0.000000
    6       18.724341   0.000000
    7       20.197556   0.000000
    8       25.369964   0.000000
 
  0.2666667E+00  0.2000000E+00  0.6666667E-01  0.7111111E-02
    1      -10.108237   1.000000
    2        5.408989   1.000000
    3        6.069280   1.000000
    4        7.586816   1.000000
    5       15.218217   0.000000
    6       19.561659   0.000000
    7       19.852254   0.000000
    8       22.073773   0.000000
 
  0.3333333E+00  0.2000000E+00  0.6666667E-01  0.1422222E-01
    1       -9.343151   1.000000
    2        3.615661   1.000000
    3        5.378340   1.000000
    4        7.075499   1.000000
    5       15.846163   0.000000
    6       19.990551   0.000000
    7       20.758640   0.000000
    8       21.721527   0.000000
 
  0.4000000E+00  0.2000000E+00  0.6666667E-01  0.1422222E-01
    1       -8.353206   1.000000
    2        1.568642   1.000000
    3        5.000789   1.000000
    4        6.458430   1.000000
    5       16.549976   0.000000
    6       20.084252   0.000000
    7       21.314562   0.000000
    8       22.071506   0.000000
 
  0.4666667E+00  0.2000000E+00  0.6666667E-01  0.1422222E-01
    1       -7.166671   1.000000
    2       -0.427807   1.000000
    3        4.754950   1.000000
    4        5.933754   1.000000
    5       17.044763   0.000000
    6       19.969863   0.000000
    7       21.634223   0.000000
    8       23.030433   0.000000
 
 -0.4666667E+00  0.2000000E+00  0.6666667E-01  0.1422222E-01
    1       -5.892388   1.000000
    2       -2.183852   1.000000
    3        4.525028   1.000000
    4        5.695219   1.000000
    5       17.374564   0.000000
    6       19.745808   0.000000
    7       21.771267   0.000000
    8       24.278856   0.000000
 
 -0.4000000E+00  0.2000000E+00  0.6666667E-01  0.1422222E-01
    1       -5.297095   1.000000
    2       -2.897332   1.000000
    3        4.275780   1.000000
    4        5.817608   1.000000
    5       17.688215   0.000000
    6       19.448007   0.000000
    7       21.755368   0.000000
    8       25.132834   0.000000
 
 -0.3333333E+00  0.2000000E+00  0.6666667E-01  0.1422222E-01
    1       -6.315157   1.000000
    2       -1.625407   1.000000
    3        4.109194   1.000000
    4        6.208717   1.000000
    5       18.041780   0.000000
    6       19.078116   0.000000
    7       21.616197   0.000000
    8       24.759524   0.000000
 
 -0.2666667E+00  0.2000000E+00  0.6666667E-01  0.1422222E-01
    1       -7.584709   1.000000
    2        0.252996   1.000000
    3        4.105060   1.000000
    4        6.773435   1.000000
    5       18.237717   0.000000
    6       18.735537   0.000000
    7       21.331081   0.000000
    8       23.759134   0.000000
 
 -0.2000000E+00  0.2000000E+00  0.6666667E-01  0.1422222E-01
    1       -8.709478   1.000000
    2        2.280784   1.000000
    3        4.315588   1.000000
    4        7.426365   1.000000
    5       17.642614   0.000000
    6       18.880760   0.000000
    7       20.772816   0.000000
    8       23.030843   0.000000
 
 -0.1333333E+00  0.2000000E+00  0.6666667E-01  0.7111111E-02
    1       -9.625348   1.000000
    2        4.088769   1.000000
    3        4.973667   1.000000
    4        8.050703   1.000000
    5       16.813525   0.000000
    6       18.896043   0.000000
    7       19.833890   0.000000
    8       22.961860   0.000000
 
  0.3333333E+00  0.2666667E+00  0.6666667E-01  0.7111111E-02
    1       -8.980498   1.000000
    2        3.967929   1.000000
    3        4.924133   1.000000
    4        5.975000   1.000000
    5       14.870186   0.000000
    6       20.018469   0.000000
    7       21.403021   0.000000
    8       21.947219   0.000000
 
  0.4000000E+00  0.2666667E+00  0.6666667E-01  0.1422222E-01
    1       -8.071053   1.000000
    2        2.364919   1.000000
    3        4.255010   1.000000
    4        5.429975   1.000000
    5       15.543259   0.000000
    6       19.787060   0.000000
    7       21.668813   0.000000
    8       22.818265   0.000000
 
  0.4666667E+00  0.2666667E+00  0.6666667E-01  0.1422222E-01
    1       -6.956223   1.000000
    2        0.543016   1.000000
    3        3.767676   1.000000
    4        4.963543   1.000000
    5       16.184670   0.000000
    6       20.386346   0.000000
    7       21.696232   0.000000
    8       23.330899   0.000000
 
 -0.4666667E+00  0.2666667E+00  0.6666667E-01  0.1422222E-01
    1       -5.703071   1.000000
    2       -1.198483   1.000000
    3        3.241233   1.000000
    4        4.837064   1.000000
    5       16.596197   0.000000
    6       21.193333   0.000000
    7       22.087977   0.000000
    8       23.549598   0.000000
 
 -0.4000000E+00  0.2666667E+00  0.6666667E-01  0.1422222E-01
    1       -4.719958   1.000000
    2       -2.371724   1.000000
    3        2.753256   1.000000
    4        5.033593   1.000000
    5       16.960553   0.000000
    6       20.967406   0.000000
    7       23.192576   0.000000
    8       23.989413   0.000000
 
 -0.3333333E+00  0.2666667E+00  0.6666667E-01  0.1422222E-01
    1       -5.320845   1.000000
    2       -1.635989   1.000000
    3        2.414174   1.000000
    4        5.466674   1.000000
    5       17.407601   0.000000
    6       20.466183   0.000000
    7       23.124904   0.000000
    8       24.707029   0.000000
 
 -0.2666667E+00  0.2666667E+00  0.6666667E-01  0.1422222E-01
    1       -6.567490   1.000000
    2        0.042329   1.000000
    3        2.302283   1.000000
    4        6.069382   1.000000
    5       17.947724   0.000000
    6       19.708505   0.000000
    7       22.830718   0.000000
    8       23.803969   0.000000
 
 -0.2000000E+00  0.2666667E+00  0.6666667E-01  0.7111111E-02
    1       -7.733308   1.000000
    2        1.634455   1.000000
    3        2.708782   1.000000
    4        6.763365   1.000000
    5       18.497318   0.000000
    6       18.693770   0.000000
    7       22.117076   0.000000
    8       22.979287   0.000000
 
  0.4000000E+00  0.3333333E+00  0.6666667E-01  0.7111111E-02
    1       -7.555035   1.000000
    2        2.315542   1.000000
    3        4.026772   1.000000
    4        4.552994   1.000000
    5       14.661113   0.000000
    6       18.109482   0.000000
    7       23.236086   0.000000
    8       23.925732   0.000000
 
  0.4666667E+00  0.3333333E+00  0.6666667E-01  0.1422222E-01
    1       -6.518107   1.000000
    2        1.005926   1.000000
    3        3.172750   1.000000
    4        4.152415   1.000000
    5       15.375603   0.000000
    6       18.236389   0.000000
    7       23.340321   0.000000
    8       24.635384   0.000000
 
 -0.4666667E+00  0.3333333E+00  0.6666667E-01  0.1422222E-01
    1       -5.316789   1.000000
    2       -0.416802   1.000000
    3        2.230879   1.000000
    4        4.086888   1.000000
    5       15.906265   0.000000
    6       19.432911   0.000000
    7       23.191068   0.000000
    8       24.878862   0.000000
 