    2    2    1    1
  0.5643294E+01  0.2517827E-09  0.2517827E-09  0.2517827E-09  0.5000000E-15
  1.000000000000000E-004
  CAR 
 Diamont Test Results                    
      8      3      8
 
  0.0000000E+00  0.0000000E+00  0.0000000E+00  0.1250000E+00
    1      -11.538030   1.000000
    2       10.254066   1.000000
    3       10.254090   1.000000
    4       10.254091   1.000000
    5       15.796385   0.000000
    6       15.796401   0.000000
    7       15.796405   0.000000
    8       23.564014   0.000000
 
  0.5000000E+00  0.2114441E-16  0.0000000E+00  0.5000000E+00
    1       -5.688176   1.000000
    2       -3.401883   1.000000
    3        7.355114   1.000000
    4        7.355133   1.000000
    5       18.625621   0.000000
    6       18.625641   0.000000
    7       19.020416   0.000000
    8       26.189967   0.000000
 
  0.5000000E+00  0.5000000E+00  0.0000000E+00  0.3750000E+00
    1       -2.729420   1.000000
    2       -2.729419   1.000000
    3        3.813684   1.000000
    4        3.813696   1.000000
    5       14.784299   0.000000
    6       14.784309   0.000000
    7       27.646168   0.000000
    8       27.646191   0.000000
