PROCAR lm decomposed
# of k-points:  120         # of bands:    8         # of ions:    2

 k-point     1 :    0.00000000 0.00000000 0.00000000     weight = 0.00029630

band     1 # energy  -11.74352723 # occ.  2.00000000
 
ion      s     py     pz     px    dxy    dyz    dz2    dxz  x2-y2    tot
    1  0.277  0.000  0.000  0.000  0.000  0.000  0.000  0.000  0.000  0.277
    2  0.277  0.000  0.000  0.000  0.000  0.000  0.000  0.000  0.000  0.277
tot    0.555  0.000  0.000  0.000  0.000  0.000  0.000  0.000  0.000  0.555
 
band     2 # energy    9.80152046 # occ.  2.00000000
 
ion      s     py     pz     px    dxy    dyz    dz2    dxz  x2-y2    tot
    1  0.000  0.208  0.052  0.117  0.000  0.000  0.000  0.000  0.000  0.378
    2  0.000  0.208  0.052  0.117  0.000  0.000  0.000  0.000  0.000  0.378
tot    0.000  0.417  0.104  0.235  0.000  0.000  0.000  0.000  0.000  0.755
 
band     3 # energy    9.80152151 # occ.  2.00000000
 
ion      s     py     pz     px    dxy    dyz    dz2    dxz  x2-y2    tot
    1  0.000  0.055  0.318  0.004  0.000  0.000  0.000  0.000  0.000  0.378
    2  0.000  0.055  0.318  0.004  0.000  0.000  0.000  0.000  0.000  0.378
tot    0.000  0.111  0.637  0.008  0.000  0.000  0.000  0.000  0.000  0.755
 
band     4 # energy    9.80152237 # occ.  2.00000000
 
ion      s     py     pz     px    dxy    dyz    dz2    dxz  x2-y2    tot
    1  0.000  0.114  0.007  0.256  0.000  0.000  0.000  0.000  0.000  0.378
    2  0.000  0.114  0.007  0.256  0.000  0.000  0.000  0.000  0.000  0.378
tot    0.000  0.228  0.015  0.513  0.000  0.000  0.000  0.000  0.000  0.755
 
band     5 # energy   15.40705369 # occ.  0.00000000
 
ion      s     py     pz     px    dxy    dyz    dz2    dxz  x2-y2    tot
    1  0.000  0.030  0.000  0.267  0.000  0.000  0.000  0.000  0.000  0.297
    2  0.000  0.030  0.000  0.267  0.000  0.000  0.000  0.000  0.000  0.297
tot    0.000  0.059  0.000  0.534  0.000  0.000  0.000  0.000  0.000  0.593
 
band     6 # energy   15.40705639 # occ.  0.00000000
 
ion      s     py     pz     px    dxy    dyz    dz2    dxz  x2-y2    tot
    1  0.000  0.001  0.296  0.000  0.000  0.000  0.000  0.000  0.000  0.297
    2  0.000  0.001  0.296  0.000  0.000  0.000  0.000  0.000  0.000  0.297
tot    0.000  0.002  0.591  0.000  0.000  0.000  0.000  0.000  0.000  0.593
 
band     7 # energy   15.40705828 # occ.  0.00000000
 
ion      s     py     pz     px    dxy    dyz    dz2    dxz  x2-y2    tot
    1  0.000  0.266  0.001  0.030  0.000  0.000  0.000  0.000  0.000  0.297
    2  0.000  0.266  0.001  0.030  0.000  0.000  0.000  0.000  0.000  0.297
tot    0.000  0.532  0.002  0.059  0.000  0.000  0.000  0.000  0.000  0.593
 
band     8 # energy   23.24871609 # occ.  0.00000000
 
ion      s     py     pz     px    dxy    dyz    dz2    dxz  x2-y2    tot
    1  0.398  0.000  0.000  0.000  0.000  0.000  0.000  0.000  0.000  0.398
    2  0.398  0.000  0.000  0.000  0.000  0.000  0.000  0.000  0.000  0.398
tot    0.797  0.000  0.000  0.000  0.000  0.000  0.000  0.000  0.000  0.797
 

 k-point     2 :    0.06666667-0.00000000 0.00000000     weight = 0.00237037

band     1 # energy  -11.62000224 # occ.  2.00000000
 
ion      s     py     pz     px    dxy    dyz    dz2    dxz  x2-y2    tot
    1  0.276  0.000  0.000  0.001  0.000  0.000  0.000  0.000  0.000  0.278
    2  0.276  0.000  0.000  0.001  0.000  0.000  0.000  0.000  0.000  0.278
tot    0.553  0.000  0.000  0.003  0.000  0.000  0.000  0.000  0.000  0.556
 
band     2 # energy    8.97385833 # occ.  2.00000000
 
ion      s     py     pz     px    dxy    dyz    dz2    dxz  x2-y2    tot
    1  0.011  0.039  0.000  0.315  0.000  0.000  0.000  0.000  0.000  0.365
    2  0.011  0.039  0.000  0.315  0.000  0.000  0.000  0.000  0.000  0.365
tot    0.023  0.079  0.000  0.629  0.000  0.000  0.000  0.000  0.000  0.730
 
band     3 # energy    9.58676002 # occ.  2.00000000
 
ion      s     py     pz     px    dxy    dyz    dz2    dxz  x2-y2    tot
    1  0.000  0.293  0.045  0.037  0.000  0.000  0.000  0.000  0.000  0.375
    2  0.000  0.293  0.045  0.037  0.000  0.000  0.000  0.000  0.000  0.375
tot    0.000  0.585  0.091  0.073  0.000  0.000  0.000  0.000  0.000  0.749
 
band     4 # energy    9.58676092 # occ.  2.00000000
 
ion      s     py     pz     px    dxy    dyz    dz2    dxz  x2-y2    tot
    1  0.000  0.040  0.329  0.005  0.000  0.000  0.000  0.000  0.000  0.375
    2  0.000  0.040  0.329  0.005  0.000  0.000  0.000  0.000  0.000  0.375
tot    0.000  0.081  0.658  0.010  0.000  0.000  0.000  0.000  0.000  0.749
 
band     5 # energy   15.68812530 # occ.  0.00000000
 
ion      s     py     pz     px    dxy    dyz    dz2    dxz  x2-y2    tot
    1  0.000  0.000  0.300  0.000  0.000  0.000  0.000  0.000  0.000  0.301
    2  0.000  0.000  0.300  0.000  0.000  0.000  0.000  0.000  0.000  0.301
tot    0.000  0.001  0.600  0.000  0.000  0.000  0.000  0.000  0.000  0.601
 
band     6 # energy   15.68812716 # occ.  0.00000000
 
ion      s     py     pz     px    dxy    dyz    dz2    dxz  x2-y2    tot
    1  0.000  0.267  0.000  0.033  0.000  0.000  0.000  0.000  0.000  0.301
    2  0.000  0.267  0.000  0.033  0.000  0.000  0.000  0.000  0.000  0.301
tot    0.000  0.534  0.001  0.067  0.000  0.000  0.000  0.000  0.000  0.601
 
band     7 # energy   15.90600367 # occ.  0.00000000
 
ion      s     py     pz     px    dxy    dyz    dz2    dxz  x2-y2    tot
    1  0.009  0.033  0.000  0.263  0.000  0.000  0.000  0.000  0.000  0.305
    2  0.009  0.033  0.000  0.263  0.000  0.000  0.000  0.000  0.000  0.305
tot    0.018  0.066  0.000  0.525  0.000  0.000  0.000  0.000  0.000  0.609
 
band     8 # energy   23.35227997 # occ.  0.00000000
 
ion      s     py     pz     px    dxy    dyz    dz2    dxz  x2-y2    tot
    1  0.380  0.002  0.000  0.015  0.000  0.000  0.000  0.000  0.000  0.397
    2  0.380  0.002  0.000  0.015  0.000  0.000  0.000  0.000  0.000  0.397
tot    0.759  0.004  0.000  0.030  0.000  0.000  0.000  0.000  0.000  0.793
 

 k-point     3 :    0.13333333-0.00000000 0.00000000     weight = 0.00237037

band     1 # energy  -11.25026725 # occ.  2.00000000
 
ion      s     py     pz     px    dxy    dyz    dz2    dxz  x2-y2    tot
    1  0.273  0.001  0.000  0.006  0.000  0.000  0.000  0.000  0.000  0.280
    2  0.273  0.001  0.000  0.006  0.000  0.000  0.000  0.000  0.000  0.280
tot    0.546  0.001  0.000  0.012  0.000  0.000  0.000  0.000  0.000  0.559
 
band     2 # energy    7.11689688 # occ.  2.00000000
 
ion      s     py     pz     px    dxy    dyz    dz2    dxz  x2-y2    tot
    1  0.035  0.035  0.000  0.277  0.000  0.000  0.000  0.000  0.000  0.346
    2  0.035  0.035  0.000  0.277  0.000  0.000  0.000  0.000  0.000  0.346
tot    0.069  0.069  0.000  0.554  0.000  0.000  0.000  0.000  0.000  0.693
 
band     3 # energy    9.07297826 # occ.  2.00000000
 
ion      s     py     pz     px    dxy    dyz    dz2    dxz  x2-y2    tot
    1  0.000  0.302  0.030  0.038  0.000  0.000  0.000  0.000  0.000  0.369
    2  0.000  0.302  0.030  0.038  0.000  0.000  0.000  0.000  0.000  0.369
tot    0.000  0.603  0.060  0.075  0.000  0.000  0.000  0.000  0.000  0.738
 
band     4 # energy    9.07297918 # occ.  2.00000000
 
ion      s     py     pz     px    dxy    dyz    dz2    dxz  x2-y2    tot
    1  0.000  0.026  0.339  0.003  0.000  0.000  0.000  0.000  0.000  0.369
    2  0.000  0.026  0.339  0.003  0.000  0.000  0.000  0.000  0.000  0.369
tot    0.000  0.053  0.679  0.007  0.000  0.000  0.000  0.000  0.000  0.738
 
band     5 # energy   16.36560572 # occ.  0.00000000
 
ion      s     py     pz     px    dxy    dyz    dz2    dxz  x2-y2    tot
    1  0.000  0.000  0.307  0.000  0.000  0.000  0.000  0.000  0.000  0.307
    2  0.000  0.000  0.307  0.000  0.000  0.000  0.000  0.000  0.000  0.307
tot    0.000  0.000  0.614  0.000  0.000  0.000  0.000  0.000  0.000  0.614
 
band     6 # energy   16.36560753 # occ.  0.00000000
 
ion      s     py     pz     px    dxy    dyz    dz2    dxz  x2-y2    tot
    1  0.000  0.273  0.000  0.034  0.000  0.000  0.000  0.000  0.000  0.307
    2  0.000  0.273  0.000  0.034  0.000  0.000  0.000  0.000  0.000  0.307
tot    0.000  0.546  0.000  0.068  0.000  0.000  0.000  0.000  0.000  0.614
 
band     7 # energy   16.81528420 # occ.  0.00000000
 
ion      s     py     pz     px    dxy    dyz    dz2    dxz  x2-y2    tot
    1  0.045  0.030  0.000  0.236  0.000  0.000  0.000  0.000  0.000  0.311
    2  0.045  0.030  0.000  0.236  0.000  0.000  0.000  0.000  0.000  0.311
tot    0.090  0.059  0.000  0.473  0.000  0.000  0.000  0.000  0.000  0.622
 
band     8 # energy   23.65608209 # occ.  0.00000000
 
ion      s     py     pz     px    dxy    dyz    dz2    dxz  x2-y2    tot
    1  0.324  0.007  0.000  0.059  0.000  0.000  0.000  0.000  0.000  0.390
    2  0.324  0.007  0.000  0.059  0.000  0.000  0.000  0.000  0.000  0.390
tot    0.647  0.015  0.000  0.118  0.000  0.000  0.000  0.000  0.000  0.780
 

 k-point     4 :    0.20000000-0.00000000 0.00000000     weight = 0.00237037

band     1 # energy  -10.63739538 # occ.  2.00000000
 
ion      s     py     pz     px    dxy    dyz    dz2    dxz  x2-y2    tot
    1  0.268  0.002  0.000  0.013  0.000  0.000  0.000  0.000  0.000  0.282
    2  0.268  0.002  0.000  0.013  0.000  0.000  0.000  0.000  0.000  0.282
tot    0.536  0.003  0.000  0.026  0.000  0.000  0.000  0.000  0.000  0.565
 
band     2 # energy    4.90297585 # occ.  2.00000000
 
ion      s     py     pz     px    dxy    dyz    dz2    dxz  x2-y2    tot
    1  0.060  0.030  0.000  0.241  0.000  0.000  0.000  0.000  0.000  0.331
    2  0.060  0.030  0.000  0.241  0.000  0.000  0.000  0.000  0.000  0.331
tot    0.121  0.060  0.000  0.481  0.000  0.000  0.000  0.000  0.000  0.662
 
band     3 # energy    8.47220286 # occ.  2.00000000
 
ion      s     py     pz     px    dxy    dyz    dz2    dxz  x2-y2    tot
    1  0.000  0.309  0.018  0.039  0.000  0.000  0.000  0.000  0.000  0.365
    2  0.000  0.309  0.018  0.039  0.000  0.000  0.000  0.000  0.000  0.365
tot    0.000  0.618  0.035  0.077  0.000  0.000  0.000  0.000  0.000  0.731
 
band     4 # energy    8.47220388 # occ.  2.00000000
 
ion      s     py     pz     px    dxy    dyz    dz2    dxz  x2-y2    tot
    1  0.000  0.016  0.348  0.002  0.000  0.000  0.000  0.000  0.000  0.365
    2  0.000  0.016  0.348  0.002  0.000  0.000  0.000  0.000  0.000  0.365
tot    0.000  0.031  0.696  0.004  0.000  0.000  0.000  0.000  0.000  0.731
 
band     5 # energy   17.13227572 # occ.  0.00000000
 
ion      s     py     pz     px    dxy    dyz    dz2    dxz  x2-y2    tot
    1  0.000  0.000  0.309  0.000  0.000  0.000  0.000  0.000  0.000  0.309
    2  0.000  0.000  0.309  0.000  0.000  0.000  0.000  0.000  0.000  0.309
tot    0.000  0.000  0.617  0.000  0.000  0.000  0.000  0.000  0.000  0.617
 
band     6 # energy   17.13227737 # occ.  0.00000000
 
ion      s     py     pz     px    dxy    dyz    dz2    dxz  x2-y2    tot
    1  0.000  0.274  0.000  0.034  0.000  0.000  0.000  0.000  0.000  0.309
    2  0.000  0.274  0.000  0.034  0.000  0.000  0.000  0.000  0.000  0.309
tot    0.000  0.549  0.000  0.069  0.000  0.000  0.000  0.000  0.000  0.617
 
band     7 # energy   17.58123122 # occ.  0.00000000
 
ion      s     py     pz     px    dxy    dyz    dz2    dxz  x2-y2    tot
    1  0.107  0.023  0.000  0.182  0.000  0.000  0.000  0.000  0.000  0.312
    2  0.107  0.023  0.000  0.182  0.000  0.000  0.000  0.000  0.000  0.312
tot    0.213  0.046  0.000  0.365  0.000  0.000  0.000  0.000  0.000  0.623
 
band     8 # energy   24.12081614 # occ.  0.00000000
 
ion      s     py     pz     px    dxy    dyz    dz2    dxz  x2-y2    tot
    1  0.239  0.015  0.000  0.121  0.000  0.000  0.000  0.000  0.000  0.376
    2  0.239  0.015  0.000  0.121  0.000  0.000  0.000  0.000  0.000  0.376
tot    0.478  0.030  0.000  0.243  0.000  0.000  0.000  0.000  0.000  0.752
 

 k-point     5 :    0.26666667 0.00000000 0.00000000     weight = 0.00237037

band     1 # energy   -9.78796210 # occ.  2.00000000
 
ion      s     py     pz     px    dxy    dyz    dz2    dxz  x2-y2    tot
    1  0.261  0.003  0.000  0.022  0.000  0.000  0.000  0.000  0.000  0.286
    2  0.261  0.003  0.000  0.022  0.000  0.000  0.000  0.000  0.000  0.286
tot    0.523  0.006  0.000  0.044  0.000  0.000  0.000  0.000  0.000  0.573
 
band     2 # energy    2.61703115 # occ.  2.00000000
 
ion      s     py     pz     px    dxy    dyz    dz2    dxz  x2-y2    tot
    1  0.084  0.026  0.000  0.208  0.000  0.000  0.000  0.000  0.000  0.318
    2  0.084  0.026  0.000  0.208  0.000  0.000  0.000  0.000  0.000  0.318
tot    0.168  0.052  0.000  0.416  0.000  0.000  0.000  0.000  0.000  0.636
 
band     3 # energy    7.91702325 # occ.  2.00000000
 
ion      s     py     pz     px    dxy    dyz    dz2    dxz  x2-y2    tot
    1  0.000  0.315  0.010  0.039  0.000  0.000  0.000  0.000  0.000  0.364
    2  0.000  0.315  0.010  0.039  0.000  0.000  0.000  0.000  0.000  0.364
tot    0.000  0.630  0.019  0.079  0.000  0.000  0.000  0.000  0.000  0.728
 
band     4 # energy    7.91702443 # occ.  2.00000000
 
ion      s     py     pz     px    dxy    dyz    dz2    dxz  x2-y2    tot
    1  0.000  0.009  0.354  0.001  0.000  0.000  0.000  0.000  0.000  0.364
    2  0.000  0.009  0.354  0.001  0.000  0.000  0.000  0.000  0.000  0.364
tot    0.000  0.017  0.708  0.002  0.000  0.000  0.000  0.000  0.000  0.728
 
band     5 # energy   17.74656196 # occ.  0.00000000
 
ion      s     py     pz     px    dxy    dyz    dz2    dxz  x2-y2    tot
    1  0.000  0.000  0.301  0.000  0.000  0.000  0.000  0.000  0.000  0.301
    2  0.000  0.000  0.301  0.000  0.000  0.000  0.000  0.000  0.000  0.301
tot    0.000  0.000  0.602  0.000  0.000  0.000  0.000  0.000  0.000  0.602
 
band     6 # energy   17.74656332 # occ.  0.00000000
 
ion      s     py     pz     px    dxy    dyz    dz2    dxz  x2-y2    tot
    1  0.000  0.268  0.000  0.033  0.000  0.000  0.000  0.000  0.000  0.301
    2  0.000  0.268  0.000  0.033  0.000  0.000  0.000  0.000  0.000  0.301
tot    0.000  0.535  0.000  0.067  0.000  0.000  0.000  0.000  0.000  0.602
 
band     7 # energy   18.10338075 # occ.  0.00000000
 
ion      s     py     pz     px    dxy    dyz    dz2    dxz  x2-y2    tot
    1  0.175  0.015  0.000  0.121  0.000  0.000  0.000  0.000  0.000  0.311
    2  0.175  0.015  0.000  0.121  0.000  0.000  0.000  0.000  0.000  0.311
tot    0.350  0.030  0.000  0.242  0.000  0.000  0.000  0.000  0.000  0.622
 
band     8 # energy   24.65221738 # occ.  0.00000000
 
ion      s     py     pz     px    dxy    dyz    dz2    dxz  x2-y2    tot
    1  0.146  0.023  0.000  0.181  0.000  0.000  0.000  0.000  0.000  0.350
    2  0.146  0.023  0.000  0.181  0.000  0.000  0.000  0.000  0.000  0.350
tot    0.292  0.045  0.000  0.362  0.000  0.000  0.000  0.000  0.000  0.700
 

 k-point     6 :    0.33333333-0.00000000 0.00000000     weight = 0.00237037

band     1 # energy   -8.71588182 # occ.  2.00000000
 
ion      s     py     pz     px    dxy    dyz    dz2    dxz  x2-y2    tot
    1  0.255  0.004  0.000  0.033  0.000  0.000  0.000  0.000  0.000  0.292
    2  0.255  0.004  0.000  0.033  0.000  0.000  0.000  0.000  0.000  0.292
tot    0.511  0.008  0.000  0.065  0.000  0.000  0.000  0.000  0.000  0.584
 
band     2 # energy    0.39796103 # occ.  2.00000000
 
ion      s     py     pz     px    dxy    dyz    dz2    dxz  x2-y2    tot
    1  0.104  0.023  0.000  0.180  0.000  0.000  0.000  0.000  0.000  0.306
    2  0.104  0.023  0.000  0.180  0.000  0.000  0.000  0.000  0.000  0.306
tot    0.207  0.045  0.000  0.361  0.000  0.000  0.000  0.000  0.000  0.613
 
band     3 # energy    7.47129072 # occ.  2.00000000
 
ion      s     py     pz     px    dxy    dyz    dz2    dxz  x2-y2    tot
    1  0.000  0.318  0.006  0.040  0.000  0.000  0.000  0.000  0.000  0.364
    2  0.000  0.318  0.006  0.040  0.000  0.000  0.000  0.000  0.000  0.364
tot    0.000  0.636  0.012  0.079  0.000  0.000  0.000  0.000  0.000  0.727
 
band     4 # energy    7.47129206 # occ.  2.00000000
 
ion      s     py     pz     px    dxy    dyz    dz2    dxz  x2-y2    tot
    1  0.000  0.005  0.358  0.001  0.000  0.000  0.000  0.000  0.000  0.364
    2  0.000  0.005  0.358  0.001  0.000  0.000  0.000  0.000  0.000  0.364
tot    0.000  0.011  0.715  0.001  0.000  0.000  0.000  0.000  0.000  0.727
 
band     5 # energy   18.10322095 # occ.  0.00000000
 
ion      s     py     pz     px    dxy    dyz    dz2    dxz  x2-y2    tot
    1  0.000  0.000  0.286  0.000  0.000  0.000  0.000  0.000  0.000  0.286
    2  0.000  0.000  0.286  0.000  0.000  0.000  0.000  0.000  0.000  0.286
tot    0.000  0.000  0.572  0.000  0.000  0.000  0.000  0.000  0.000  0.573
 
band     6 # energy   18.10322202 # occ.  0.00000000
 
ion      s     py     pz     px    dxy    dyz    dz2    dxz  x2-y2    tot
    1  0.000  0.254  0.000  0.032  0.000  0.000  0.000  0.000  0.000  0.286
    2  0.000  0.254  0.000  0.032  0.000  0.000  0.000  0.000  0.000  0.286
tot    0.000  0.509  0.000  0.064  0.000  0.000  0.000  0.000  0.000  0.573
 
band     7 # energy   18.42995622 # occ.  0.00000000
 
ion      s     py     pz     px    dxy    dyz    dz2    dxz  x2-y2    tot
    1  0.233  0.009  0.000  0.069  0.000  0.000  0.000  0.000  0.000  0.311
    2  0.233  0.009  0.000  0.069  0.000  0.000  0.000  0.000  0.000  0.311
tot    0.466  0.017  0.000  0.139  0.000  0.000  0.000  0.000  0.000  0.622
 
band     8 # energy   25.11774341 # occ.  0.00000000
 
ion      s     py     pz     px    dxy    dyz    dz2    dxz  x2-y2    tot
    1  0.069  0.027  0.000  0.218  0.000  0.000  0.000  0.000  0.000  0.313
    2  0.069  0.027  0.000  0.218  0.000  0.000  0.000  0.000  0.000  0.313
tot    0.137  0.054  0.000  0.435  0.000  0.000  0.000  0.000  0.000  0.627
 

 k-point     7 :    0.40000000-0.00000000 0.00000000     weight = 0.00237037

band     1 # energy   -7.46002598 # occ.  2.00000000
 
ion      s     py     pz     px    dxy    dyz    dz2    dxz  x2-y2    tot
    1  0.255  0.005  0.000  0.041  0.000  0.000  0.000  0.000  0.000  0.301
    2  0.255  0.005  0.000  0.041  0.000  0.000  0.000  0.000  0.000  0.301
tot    0.509  0.010  0.000  0.082  0.000  0.000  0.000  0.000  0.000  0.602
 
band     2 # energy   -1.65037771 # occ.  2.00000000
 
ion      s     py     pz     px    dxy    dyz    dz2    dxz  x2-y2    tot
    1  0.114  0.020  0.000  0.160  0.000  0.000  0.000  0.000  0.000  0.294
    2  0.114  0.020  0.000  0.160  0.000  0.000  0.000  0.000  0.000  0.294
tot    0.227  0.040  0.000  0.321  0.000  0.000  0.000  0.000  0.000  0.588
 
band     3 # energy    7.16418184 # occ.  2.00000000
 
ion      s     py     pz     px    dxy    dyz    dz2    dxz  x2-y2    tot
    1  0.000  0.320  0.004  0.040  0.000  0.000  0.000  0.000  0.000  0.364
    2  0.000  0.320  0.004  0.040  0.000  0.000  0.000  0.000  0.000  0.364
tot    0.000  0.639  0.009  0.080  0.000  0.000  0.000  0.000  0.000  0.728
 
band     4 # energy    7.16418331 # occ.  2.00000000
 
ion      s     py     pz     px    dxy    dyz    dz2    dxz  x2-y2    tot
    1  0.000  0.004  0.360  0.000  0.000  0.000  0.000  0.000  0.000  0.364
    2  0.000  0.004  0.360  0.000  0.000  0.000  0.000  0.000  0.000  0.364
tot    0.000  0.008  0.719  0.001  0.000  0.000  0.000  0.000  0.000  0.728
 
band     5 # energy   18.24615896 # occ.  0.00000000
 
ion      s     py     pz     px    dxy    dyz    dz2    dxz  x2-y2    tot
    1  0.000  0.001  0.270  0.000  0.000  0.000  0.000  0.000  0.000  0.271
    2  0.000  0.001  0.270  0.000  0.000  0.000  0.000  0.000  0.000  0.271
tot    0.000  0.002  0.540  0.000  0.000  0.000  0.000  0.000  0.000  0.542
 
band     6 # energy   18.24615979 # occ.  0.00000000
 
ion      s     py     pz     px    dxy    dyz    dz2    dxz  x2-y2    tot
    1  0.000  0.240  0.001  0.030  0.000  0.000  0.000  0.000  0.000  0.271
    2  0.000  0.240  0.001  0.030  0.000  0.000  0.000  0.000  0.000  0.271
tot    0.000  0.480  0.002  0.060  0.000  0.000  0.000  0.000  0.000  0.542
 
band     7 # energy   18.61938535 # occ.  0.00000000
 
ion      s     py     pz     px    dxy    dyz    dz2    dxz  x2-y2    tot
    1  0.272  0.004  0.000  0.035  0.000  0.000  0.000  0.000  0.000  0.311
    2  0.272  0.004  0.000  0.035  0.000  0.000  0.000  0.000  0.000  0.311
tot    0.545  0.009  0.000  0.069  0.000  0.000  0.000  0.000  0.000  0.622
 
band     8 # energy   25.41187057 # occ.  0.00000000
 
ion      s     py     pz     px    dxy    dyz    dz2    dxz  x2-y2    tot
    1  0.021  0.028  0.000  0.226  0.000  0.000  0.000  0.000  0.000  0.275
    2  0.021  0.028  0.000  0.226  0.000  0.000  0.000  0.000  0.000  0.275
tot    0.043  0.056  0.000  0.452  0.000  0.000  0.000  0.000  0.000  0.551
 

 k-point     8 :    0.46666667-0.00000000 0.00000000     weight = 0.00237037

band     1 # energy   -6.21680719 # occ.  2.00000000
 
ion      s     py     pz     px    dxy    dyz    dz2    dxz  x2-y2    tot
    1  0.278  0.004  0.000  0.036  0.000  0.000  0.000  0.000  0.000  0.318
    2  0.278  0.004  0.000  0.036  0.000  0.000  0.000  0.000  0.000  0.318
tot    0.555  0.009  0.000  0.072  0.000  0.000  0.000  0.000  0.000  0.636
 
band     2 # energy   -3.29741420 # occ.  2.00000000
 
ion      s     py     pz     px    dxy    dyz    dz2    dxz  x2-y2    tot
    1  0.095  0.020  0.000  0.160  0.000  0.000  0.000  0.000  0.000  0.275
    2  0.095  0.020  0.000  0.160  0.000  0.000  0.000  0.000  0.000  0.275
tot    0.190  0.040  0.000  0.320  0.000  0.000  0.000  0.000  0.000  0.551
 
band     3 # energy    7.00835977 # occ.  2.00000000
 
ion      s     py     pz     px    dxy    dyz    dz2    dxz  x2-y2    tot
    1  0.000  0.321  0.003  0.040  0.000  0.000  0.000  0.000  0.000  0.364
    2  0.000  0.321  0.003  0.040  0.000  0.000  0.000  0.000  0.000  0.364
tot    0.000  0.642  0.007  0.080  0.000  0.000  0.000  0.000  0.000  0.729
 
band     4 # energy    7.00836130 # occ.  2.00000000
 
ion      s     py     pz     px    dxy    dyz    dz2    dxz  x2-y2    tot
    1  0.000  0.003  0.361  0.000  0.000  0.000  0.000  0.000  0.000  0.364
    2  0.000  0.003  0.361  0.000  0.000  0.000  0.000  0.000  0.000  0.364
tot    0.000  0.006  0.722  0.001  0.000  0.000  0.000  0.000  0.000  0.729
 
band     5 # energy   18.28069587 # occ.  0.00000000
 
ion      s     py     pz     px    dxy    dyz    dz2    dxz  x2-y2    tot
    1  0.000  0.003  0.259  0.000  0.000  0.000  0.000  0.000  0.000  0.262
    2  0.000  0.003  0.259  0.000  0.000  0.000  0.000  0.000  0.000  0.262
tot    0.000  0.006  0.517  0.001  0.000  0.000  0.000  0.000  0.000  0.524
 
band     6 # energy   18.28069658 # occ.  0.00000000
 
ion      s     py     pz     px    dxy    dyz    dz2    dxz  x2-y2    tot
    1  0.000  0.230  0.003  0.029  0.000  0.000  0.000  0.000  0.000  0.262
    2  0.000  0.230  0.003  0.029  0.000  0.000  0.000  0.000  0.000  0.262
tot    0.000  0.460  0.006  0.057  0.000  0.000  0.000  0.000  0.000  0.524
 
band     7 # energy   18.70690834 # occ.  0.00000000
 
ion      s     py     pz     px    dxy    dyz    dz2    dxz  x2-y2    tot
    1  0.292  0.002  0.000  0.017  0.000  0.000  0.000  0.000  0.000  0.312
    2  0.292  0.002  0.000  0.017  0.000  0.000  0.000  0.000  0.000  0.312
tot    0.584  0.004  0.000  0.035  0.000  0.000  0.000  0.000  0.000  0.623
 
band     8 # energy   25.53778774 # occ.  0.00000000
 
ion      s     py     pz     px    dxy    dyz    dz2    dxz  x2-y2    tot
    1  0.003  0.028  0.000  0.221  0.000  0.000  0.000  0.000  0.000  0.252
    2  0.003  0.028  0.000  0.221  0.000  0.000  0.000  0.000  0.000  0.252
tot    0.006  0.055  0.000  0.443  0.000  0.000  0.000  0.000  0.000  0.504
 

 k-point     9 :    0.06666667 0.06666667 0.00000000     weight = 0.00177778

band     1 # energy  -11.57883744 # occ.  2.00000000
 
ion      s     py     pz     px    dxy    dyz    dz2    dxz  x2-y2    tot
    1  0.276  0.001  0.000  0.001  0.000  0.000  0.000  0.000  0.000  0.278
    2  0.276  0.001  0.000  0.001  0.000  0.000  0.000  0.000  0.000  0.278
tot    0.552  0.001  0.000  0.003  0.000  0.000  0.000  0.000  0.000  0.556
 
band     2 # energy    9.17714273 # occ.  2.00000000
 
ion      s     py     pz     px    dxy    dyz    dz2    dxz  x2-y2    tot
    1  0.000  0.000  0.366  0.000  0.000  0.000  0.000  0.000  0.000  0.366
    2  0.000  0.000  0.366  0.000  0.000  0.000  0.000  0.000  0.000  0.366
tot    0.000  0.000  0.733  0.000  0.000  0.000  0.000  0.000  0.000  0.733
 
band     3 # energy    9.17714323 # occ.  2.00000000
 
ion      s     py     pz     px    dxy    dyz    dz2    dxz  x2-y2    tot
    1  0.000  0.244  0.000  0.122  0.000  0.000  0.000  0.000  0.000  0.366
    2  0.000  0.244  0.000  0.122  0.000  0.000  0.000  0.000  0.000  0.366
tot    0.000  0.488  0.000  0.244  0.000  0.000  0.000  0.000  0.000  0.733
 
band     4 # energy    9.40326581 # occ.  2.00000000
 
ion      s     py     pz     px    dxy    dyz    dz2    dxz  x2-y2    tot
    1  0.016  0.120  0.000  0.241  0.000  0.000  0.000  0.000  0.000  0.377
    2  0.016  0.120  0.000  0.241  0.000  0.000  0.000  0.000  0.000  0.377
tot    0.033  0.241  0.000  0.481  0.000  0.000  0.000  0.000  0.000  0.754
 
band     5 # energy   15.27822417 # occ.  0.00000000
 
ion      s     py     pz     px    dxy    dyz    dz2    dxz  x2-y2    tot
    1  0.009  0.094  0.000  0.188  0.000  0.000  0.000  0.000  0.000  0.291
    2  0.009  0.094  0.000  0.188  0.000  0.000  0.000  0.000  0.000  0.291
tot    0.018  0.188  0.000  0.376  0.000  0.000  0.000  0.000  0.000  0.582
 
band     6 # energy   16.17333412 # occ.  0.00000000
 
ion      s     py     pz     px    dxy    dyz    dz2    dxz  x2-y2    tot
    1  0.000  0.206  0.000  0.103  0.000  0.000  0.000  0.000  0.000  0.309
    2  0.000  0.206  0.000  0.103  0.000  0.000  0.000  0.000  0.000  0.309
tot    0.000  0.412  0.000  0.206  0.000  0.000  0.000  0.000  0.000  0.619
 
band     7 # energy   16.17333492 # occ.  0.00000000
 
ion      s     py     pz     px    dxy    dyz    dz2    dxz  x2-y2    tot
    1  0.000  0.000  0.309  0.000  0.000  0.000  0.000  0.000  0.000  0.309
    2  0.000  0.000  0.309  0.000  0.000  0.000  0.000  0.000  0.000  0.309
tot    0.000  0.000  0.619  0.000  0.000  0.000  0.000  0.000  0.000  0.619
 
band     8 # energy   23.34570656 # occ.  0.00000000
 
ion      s     py     pz     px    dxy    dyz    dz2    dxz  x2-y2    tot
    1  0.373  0.007  0.000  0.014  0.000  0.000  0.000  0.000  0.000  0.394
    2  0.373  0.007  0.000  0.014  0.000  0.000  0.000  0.000  0.000  0.394
tot    0.745  0.014  0.000  0.028  0.000  0.000  0.000  0.000  0.000  0.787
 

 k-point    10 :    0.13333333 0.06666667 0.00000000     weight = 0.00711111

band     1 # energy  -11.29124347 # occ.  2.00000000
 
ion      s     py     pz     px    dxy    dyz    dz2    dxz  x2-y2    tot
    1  0.273  0.000  0.000  0.006  0.000  0.000  0.000  0.000  0.000  0.279
    2  0.273  0.000  0.000  0.006  0.000  0.000  0.000  0.000  0.000  0.279
tot    0.547  0.000  0.000  0.012  0.000  0.000  0.000  0.000  0.000  0.559
 
band     2 # energy    7.73853625 # occ.  2.00000000
 
ion      s     py     pz     px    dxy    dyz    dz2    dxz  x2-y2    tot
    1  0.025  0.050  0.000  0.278  0.000  0.000  0.000  0.000  0.000  0.353
    2  0.025  0.050  0.000  0.278  0.000  0.000  0.000  0.000  0.000  0.353
tot    0.051  0.100  0.000  0.556  0.000  0.000  0.000  0.000  0.000  0.707
 
band     3 # energy    8.56389766 # occ.  2.00000000
 
ion      s     py     pz     px    dxy    dyz    dz2    dxz  x2-y2    tot
    1  0.000  0.000  0.359  0.000  0.000  0.000  0.000  0.000  0.000  0.359
    2  0.000  0.000  0.359  0.000  0.000  0.000  0.000  0.000  0.000  0.359
tot    0.000  0.000  0.719  0.000  0.000  0.000  0.000  0.000  0.000  0.719
 
band     4 # energy    9.18651481 # occ.  2.00000000
 
ion      s     py     pz     px    dxy    dyz    dz2    dxz  x2-y2    tot
    1  0.012  0.309  0.000  0.054  0.000  0.000  0.000  0.000  0.000  0.375
    2  0.012  0.309  0.000  0.054  0.000  0.000  0.000  0.000  0.000  0.375
tot    0.024  0.617  0.000  0.108  0.000  0.000  0.000  0.000  0.000  0.749
 
band     5 # energy   15.46678919 # occ.  0.00000000
 
ion      s     py     pz     px    dxy    dyz    dz2    dxz  x2-y2    tot
    1  0.015  0.160  0.000  0.116  0.000  0.000  0.000  0.000  0.000  0.290
    2  0.015  0.160  0.000  0.116  0.000  0.000  0.000  0.000  0.000  0.290
tot    0.030  0.319  0.000  0.231  0.000  0.000  0.000  0.000  0.000  0.580
 
band     6 # energy   16.97336520 # occ.  0.00000000
 
ion      s     py     pz     px    dxy    dyz    dz2    dxz  x2-y2    tot
    1  0.000  0.000  0.318  0.000  0.000  0.000  0.000  0.000  0.000  0.318
    2  0.000  0.000  0.318  0.000  0.000  0.000  0.000  0.000  0.000  0.318
tot    0.000  0.000  0.636  0.000  0.000  0.000  0.000  0.000  0.000  0.636
 
band     7 # energy   17.02416476 # occ.  0.00000000
 
ion      s     py     pz     px    dxy    dyz    dz2    dxz  x2-y2    tot
    1  0.016  0.156  0.000  0.145  0.000  0.000  0.000  0.000  0.000  0.317
    2  0.016  0.156  0.000  0.145  0.000  0.000  0.000  0.000  0.000  0.317
tot    0.032  0.312  0.000  0.291  0.000  0.000  0.000  0.000  0.000  0.635
 
band     8 # energy   23.45714190 # occ.  0.00000000
 
ion      s     py     pz     px    dxy    dyz    dz2    dxz  x2-y2    tot
    1  0.327  0.001  0.000  0.053  0.000  0.000  0.000  0.000  0.000  0.380
    2  0.327  0.001  0.000  0.053  0.000  0.000  0.000  0.000  0.000  0.380
tot    0.654  0.002  0.000  0.105  0.000  0.000  0.000  0.000  0.000  0.761
 

 k-point    11 :    0.20000000 0.06666667 0.00000000     weight = 0.00711111

band     1 # energy  -10.75940904 # occ.  2.00000000
 
ion      s     py     pz     px    dxy    dyz    dz2    dxz  x2-y2    tot
    1  0.269  0.000  0.000  0.013  0.000  0.000  0.000  0.000  0.000  0.282
    2  0.269  0.000  0.000  0.013  0.000  0.000  0.000  0.000  0.000  0.282