<?xml version="1.0" encoding="ISO-8859-1"?>
<modeling>
 <generator>
  <i name="program" type="string">vasp </i>
  <i name="version" type="string">5.4.4.18Apr17-6-g9f103f2a35  </i>
  <i name="subversion" type="string">(build Jan 25 2021 16:16:55) complex            parallel </i>
  <i name="platform" type="string">LinuxIFC </i>
  <i name="date" type="string">2026 04 24 </i>
  <i name="time" type="string">13:12:25 </i>
 </generator>
 <incar>
  <i type="string" name="SYSTEM"> r-GeO2 ENCUT convergence test</i>
  <i type="int" name="ISTART">     0</i>
  <i type="string" name="PREC">accurate</i>
  <i type="string" name="ALGO"> Normal</i>
  <i type="int" name="ICHARG">     2</i>
  <i type="int" name="IBRION">    -1</i>
  <i name="EDIFF">      0.00010000</i>
  <i type="int" name="NSW">     0</i>
  <i name="ENCUT">    500.00000000</i>
  <i type="logical" name="LREAL"> F  </i>
  <i type="int" name="ISMEAR">     0</i>
  <i name="SIGMA">      0.05000000</i>
  <i type="logical" name="LWAVE"> F  </i>
  <i type="logical" name="LCHARG"> F  </i>
  <i type="int" name="LORBIT">    11</i>
  <i type="logical" name="LASPH"> T  </i>
  <v type="int" name="KPOINT_BSE">    -1     0     0     0</v>
  <i type="logical" name="LASPH"> T  </i>
 </incar>
 <structure name="primitive_cell" >
  <crystal>
   <varray name="basis" >
    <v>       2.18050236       0.00000000       1.25891346 </v>
    <v>       0.72683412       2.05579703       1.25891346 </v>
    <v>       0.00000000       0.00000000       2.51782692 </v>
   </varray>
   <i name="volume">     11.28658789 </i>
   <varray name="rec_basis" >
    <v>       0.45860991      -0.16214311       0.00000000 </v>
    <v>       0.00000000       0.48642934       0.00000000 </v>
    <v>      -0.22930496      -0.16214311       0.39716789 </v>
   </varray>
  </crystal>
  <varray name="positions" >
   <v>      -0.12500000      -0.12500000      -0.12500000 </v>
   <v>       0.12500000       0.12500000       0.12500000 </v>
  </varray>
 </structure>
 <varray name="primitive_index" >
  <v type="int" >        1 </v>
  <v type="int" >        2 </v>
 </varray>
 <kpoints>
  <generation param="Gamma">
   <v type="int" name="divisions">      15       15       15 </v>
   <v name="usershift">      0.00000000       0.00000000       0.00000000 </v>
   <v name="genvec1">      0.06666667      -0.00000000       0.00000000 </v>
   <v name="genvec2">      0.00000000       0.06666667       0.00000000 </v>
   <v name="genvec3">      0.00000000       0.00000000       0.06666667 </v>
   <v name="shift">      0.00000000       0.00000000       0.00000000 </v>
  </generation>
  <varray name="kpointlist" >
   <v>       0.00000000       0.00000000       0.00000000 </v>
   <v>       0.06666667      -0.00000000       0.00000000 </v>
   <v>       0.13333333      -0.00000000       0.00000000 </v>
   <v>       0.20000000      -0.00000000       0.00000000 </v>
   <v>       0.26666667       0.00000000       0.00000000 </v>
   <v>       0.33333333      -0.00000000       0.00000000 </v>
   <v>       0.40000000      -0.00000000       0.00000000 </v>
   <v>       0.46666667      -0.00000000       0.00000000 </v>
   <v>       0.06666667       0.06666667       0.00000000 </v>
   <v>       0.13333333       0.06666667       0.00000000 </v>
   <v>       0.20000000       0.06666667       0.00000000 </v>
   <v>       0.26666667       0.06666667       0.00000000 </v>
   <v>       0.33333333       0.06666667       0.00000000 </v>
   <v>       0.40000000       0.06666667       0.00000000 </v>
   <v>       0.46666667       0.06666667       0.00000000 </v>
   <v>      -0.46666667       0.06666667       0.00000000 </v>
   <v>      -0.40000000       0.06666667       0.00000000 </v>
   <v>      -0.33333333       0.06666667       0.00000000 </v>
   <v>      -0.26666667       0.06666667       0.00000000 </v>
   <v>      -0.20000000       0.06666667       0.00000000 </v>
   <v>      -0.13333333       0.06666667       0.00000000 </v>
   <v>      -0.06666667       0.06666667       0.00000000 </v>
   <v>       0.13333333       0.13333333       0.00000000 </v>
   <v>       0.20000000       0.13333333       0.00000000 </v>
   <v>       0.26666667       0.13333333       0.00000000 </v>
   <v>       0.33333333       0.13333333       0.00000000 </v>
   <v>       0.40000000       0.13333333       0.00000000 </v>
   <v>       0.46666667       0.13333333       0.00000000 </v>
   <v>      -0.46666667       0.13333333       0.00000000 </v>
   <v>      -0.40000000       0.13333333       0.00000000 </v>
   <v>      -0.33333333       0.13333333       0.00000000 </v>
   <v>      -0.26666667       0.13333333       0.00000000 </v>
   <v>      -0.20000000       0.13333333       0.00000000 </v>
   <v>      -0.13333333       0.13333333       0.00000000 </v>
   <v>       0.20000000       0.20000000       0.00000000 </v>
   <v>       0.26666667       0.20000000       0.00000000 </v>
   <v>       0.33333333       0.20000000       0.00000000 </v>
   <v>       0.40000000       0.20000000       0.00000000 </v>
   <v>       0.46666667       0.20000000       0.00000000 </v>
   <v>      -0.46666667       0.20000000       0.00000000 </v>
   <v>      -0.40000000       0.20000000       0.00000000 </v>
   <v>      -0.33333333       0.20000000       0.00000000 </v>
   <v>      -0.26666667       0.20000000       0.00000000 </v>
   <v>      -0.20000000       0.20000000       0.00000000 </v>
   <v>       0.26666667       0.26666667       0.00000000 </v>
   <v>       0.33333333       0.26666667       0.00000000 </v>
   <v>       0.40000000       0.26666667       0.00000000 </v>
   <v>       0.46666667       0.26666667       0.00000000 </v>
   <v>      -0.46666667       0.26666667       0.00000000 </v>
   <v>      -0.40000000       0.26666667       0.00000000 </v>
   <v>      -0.33333333       0.26666667       0.00000000 </v>
   <v>      -0.26666667       0.26666667       0.00000000 </v>
   <v>       0.33333333       0.33333333       0.00000000 </v>
   <v>       0.40000000       0.33333333       0.00000000 </v>
   <v>       0.46666667       0.33333333       0.00000000 </v>
   <v>      -0.46666667       0.33333333       0.00000000 </v>
   <v>      -0.40000000       0.33333333       0.00000000 </v>
   <v>      -0.33333333       0.33333333       0.00000000 </v>
   <v>       0.40000000       0.40000000       0.00000000 </v>
   <v>       0.46666667       0.40000000       0.00000000 </v>
   <v>      -0.46666667       0.40000000       0.00000000 </v>
   <v>      -0.40000000       0.40000000       0.00000000 </v>
   <v>       0.46666667       0.46666667       0.00000000 </v>
   <v>      -0.46666667       0.46666667       0.00000000 </v>
   <v>       0.20000000       0.13333333       0.06666667 </v>
   <v>       0.26666667       0.13333333       0.06666667 </v>
   <v>       0.33333333       0.13333333       0.06666667 </v>
   <v>       0.40000000       0.13333333       0.06666667 </v>
   <v>       0.46666667       0.13333333       0.06666667 </v>
   <v>      -0.46666667       0.13333333       0.06666667 </v>
   <v>       0.26666667       0.20000000       0.06666667 </v>
   <v>       0.33333333       0.20000000       0.06666667 </v>
   <v>       0.40000000       0.20000000       0.06666667 </v>
   <v>       0.46666667       0.20000000       0.06666667 </v>
   <v>      -0.46666667       0.20000000       0.06666667 </v>
   <v>      -0.40000000       0.20000000       0.06666667 </v>
   <v>      -0.33333333       0.20000000       0.06666667 </v>
   <v>      -0.26666667       0.20000000       0.06666667 </v>
   <v>      -0.20000000       0.20000000       0.06666667 </v>
   <v>      -0.13333333       0.20000000       0.06666667 </v>
   <v>       0.33333333       0.26666667       0.06666667 </v>
   <v>       0.40000000       0.26666667       0.06666667 </v>
   <v>       0.46666667       0.26666667       0.06666667 </v>
   <v>      -0.46666667       0.26666667       0.06666667 </v>
   <v>      -0.40000000       0.26666667       0.06666667 </v>
   <v>      -0.33333333       0.26666667       0.06666667 </v>
   <v>      -0.26666667       0.26666667       0.06666667 </v>
   <v>      -0.20000000       0.26666667       0.06666667 </v>
   <v>       0.40000000       0.33333333       0.06666667 </v>
   <v>       0.46666667       0.33333333       0.06666667 </v>
   <v>      -0.46666667       0.33333333       0.06666667 </v>
   <v>      -0.40000000       0.33333333       0.06666667 </v>
   <v>      -0.33333333       0.33333333       0.06666667 </v>
   <v>      -0.26666667       0.33333333       0.06666667 </v>
   <v>       0.46666667       0.40000000       0.06666667 </v>
   <v>      -0.46666667       0.40000000       0.06666667 </v>
   <v>      -0.40000000       0.40000000       0.06666667 </v>
   <v>      -0.33333333       0.40000000       0.06666667 </v>
   <v>      -0.46666667       0.46666667       0.06666667 </v>
   <v>      -0.40000000       0.46666667       0.06666667 </v>
   <v>       0.40000000       0.26666667       0.13333333 </v>
   <v>       0.46666667       0.26666667       0.13333333 </v>
   <v>      -0.46666667       0.26666667       0.13333333 </v>
   <v>      -0.40000000       0.26666667       0.13333333 </v>
   <v>       0.46666667       0.33333333       0.13333333 </v>
   <v>      -0.46666667       0.33333333       0.13333333 </v>
   <v>      -0.40000000       0.33333333       0.13333333 </v>
   <v>      -0.33333333       0.33333333       0.13333333 </v>
   <v>      -0.26666667       0.33333333       0.13333333 </v>
   <v>      -0.20000000       0.33333333       0.13333333 </v>
   <v>      -0.46666667       0.40000000       0.13333333 </v>
   <v>      -0.40000000       0.40000000       0.13333333 </v>
   <v>      -0.33333333       0.40000000       0.13333333 </v>
   <v>      -0.26666667       0.40000000       0.13333333 </v>
   <v>      -0.40000000       0.46666667       0.13333333 </v>
   <v>      -0.33333333       0.46666667       0.13333333 </v>
   <v>      -0.40000000       0.40000000       0.20000000 </v>
   <v>      -0.33333333       0.40000000       0.20000000 </v>
   <v>      -0.33333333       0.46666667       0.20000000 </v>
   <v>      -0.26666667       0.46666667       0.20000000 </v>
  </varray>
  <varray name="weights" >
   <v>       0.00029630 </v>
   <v>       0.00237037 </v>
   <v>       0.00237037 </v>
   <v>       0.00237037 </v>
   <v>       0.00237037 </v>
   <v>       0.00237037 </v>
   <v>       0.00237037 </v>
   <v>       0.00237037 </v>
   <v>       0.00177778 </v>
   <v>       0.00711111 </v>
   <v>       0.00711111 </v>
   <v>       0.00711111 </v>
   <v>       0.00711111 </v>
   <v>       0.00711111 </v>
   <v>       0.00711111 </v>
   <v>       0.00711111 </v>
   <v>       0.00711111 </v>
   <v>       0.00711111 </v>
   <v>       0.00711111 </v>
   <v>       0.00711111 </v>
   <v>       0.00711111 </v>
   <v>       0.00355556 </v>
   <v>       0.00177778 </v>
   <v>       0.00711111 </v>
   <v>       0.00711111 </v>
   <v>       0.00711111 </v>
   <v>       0.00711111 </v>
   <v>       0.00711111 </v>
   <v>       0.00711111 </v>
   <v>       0.00711111 </v>
   <v>       0.00711111 </v>
   <v>       0.00711111 </v>
   <v>       0.00711111 </v>
   <v>       0.00355556 </v>
   <v>       0.00177778 </v>
   <v>       0.00711111 </v>
   <v>       0.00711111 </v>
   <v>       0.00711111 </v>
   <v>       0.00711111 </v>
   <v>       0.00711111 </v>
   <v>       0.00711111 </v>
   <v>       0.00711111 </v>
   <v>       0.00711111 </v>
   <v>       0.00355556 </v>
   <v>       0.00177778 </v>
   <v>       0.00711111 </v>
   <v>       0.00711111 </v>
   <v>       0.00711111 </v>
   <v>       0.00711111 </v>
   <v>       0.00711111 </v>
   <v>       0.00711111 </v>
   <v>       0.00355556 </v>
   <v>       0.00177778 </v>
   <v>       0.00711111 </v>
   <v>       0.00711111 </v>
   <v>       0.00711111 </v>
   <v>       0.00711111 </v>
   <v>       0.00355556 </v>
   <v>       0.00177778 </v>
   <v>       0.00711111 </v>
   <v>       0.00711111 </v>
   <v>       0.00355556 </v>
   <v>       0.00177778 </v>
   <v>       0.00355556 </v>
   <v>       0.00711111 </v>
   <v>       0.01422222 </v>
   <v>       0.01422222 </v>
   <v>       0.01422222 </v>
   <v>       0.01422222 </v>
   <v>       0.01422222 </v>
   <v>       0.00711111 </v>
   <v>       0.01422222 </v>
   <v>       0.01422222 </v>
   <v>       0.01422222 </v>
   <v>       0.01422222 </v>
   <v>       0.01422222 </v>
   <v>       0.01422222 </v>
   <v>       0.01422222 </v>
   <v>       0.01422222 </v>
   <v>       0.00711111 </v>
   <v>       0.00711111 </v>
   <v>       0.01422222 </v>
   <v>       0.01422222 </v>
   <v>       0.01422222 </v>
   <v>       0.01422222 </v>
   <v>       0.01422222 </v>
   <v>       0.01422222 </v>
   <v>       0.00711111 </v>
   <v>       0.00711111 </v>
   <v>       0.01422222 </v>
   <v>       0.01422222 </v>
   <v>       0.01422222 </v>
   <v>       0.01422222 </v>
   <v>       0.00711111 </v>
   <v>       0.00711111 </v>
   <v>       0.01422222 </v>
   <v>       0.01422222 </v>
   <v>       0.00711111 </v>
   <v>       0.00711111 </v>
   <v>       0.00711111 </v>
   <v>       0.00711111 </v>
   <v>       0.01422222 </v>
   <v>       0.01422222 </v>
   <v>       0.01422222 </v>
   <v>       0.00711111 </v>
   <v>       0.01422222 </v>
   <v>       0.01422222 </v>
   <v>       0.01422222 </v>
   <v>       0.01422222 </v>
   <v>       0.00711111 </v>
   <v>       0.00711111 </v>
   <v>       0.01422222 </v>
   <v>       0.01422222 </v>
   <v>       0.00711111 </v>
   <v>       0.00711111 </v>
   <v>       0.00711111 </v>
   <v>       0.00711111 </v>
   <v>       0.01422222 </v>
   <v>       0.00711111 </v>
   <v>       0.00711111 </v>
  </varray>
 </kpoints>
 <parameters>
  <separator name="general" >
   <i type="string" name="SYSTEM">r-GeO2 ENCUT convergence test</i>
   <i type="logical" name="LCOMPAT"> F  </i>
  </separator>
  <separator name="electronic" >
   <i type="string" name="PREC">accura</i>
   <i name="ENMAX">    500.00000000</i>
   <i name="ENAUG">    644.87300000</i>
   <i name="EDIFF">      0.00010000</i>
   <i type="int" name="IALGO">    38</i>
   <i type="int" name="IWAVPR">    10</i>
   <i type="int" name="NBANDS">     8</i>
   <i name="NELECT">      8.00000000</i>
   <i type="int" name="TURBO">     0</i>
   <i type="int" name="IRESTART">     0</i>
   <i type="int" name="NREBOOT">     0</i>
   <i type="int" name="NMIN">     0</i>
   <i name="EREF">      0.00000000</i>
   <separator name="electronic smearing" >
    <i type="int" name="ISMEAR">     0</i>
    <i name="SIGMA">      0.05000000</i>
    <i name="KSPACING">      0.50000000</i>
    <i type="logical" name="KGAMMA"> T  </i>
   </separator>
   <separator name="electronic projectors" >
    <i type="logical" name="LREAL"> F  </i>
    <v name="ROPT">      0.00000000</v>
    <i type="int" name="LMAXPAW">  -100</i>
    <i type="int" name="LMAXMIX">     2</i>
    <i type="logical" name="NLSPLINE"> F  </i>
   </separator>
   <separator name="electronic startup" >
    <i type="int" name="ISTART">     0</i>
    <i type="int" name="ICHARG">     2</i>
    <i type="int" name="INIWAV">     1</i>
   </separator>
   <separator name="electronic spin" >
    <i type="int" name="ISPIN">     1</i>
    <i type="logical" name="LNONCOLLINEAR"> F  </i>
    <v name="MAGMOM">      1.00000000      1.00000000</v>
    <i name="NUPDOWN">     -1.00000000</i>
    <i type="logical" name="LSORBIT"> F  </i>
    <v name="SAXIS">      0.00000000      0.00000000      1.00000000</v>
    <i type="logical" name="LSPIRAL"> F  </i>
    <v name="QSPIRAL">      0.00000000      0.00000000      0.00000000</v>
    <i type="logical" name="LZEROZ"> F  </i>
   </separator>
   <separator name="electronic exchange-correlation" >
    <i type="logical" name="LASPH"> T  </i>
    <i type="logical" name="LMETAGGA"> F  </i>
   </separator>
   <separator name="electronic convergence" >
    <i type="int" name="NELM">    60</i>
    <i type="int" name="NELMDL">    -5</i>
    <i type="int" name="NELMIN">     2</i>
    <i name="ENINI">    500.00000000</i>
    <separator name="electronic convergence detail" >
     <i type="logical" name="LDIAG"> T  </i>
     <i type="logical" name="LSUBROT"> F  </i>
     <i name="WEIMIN">      0.00000000</i>
     <i name="EBREAK">      0.00000313</i>
     <i name="DEPER">      0.30000000</i>
     <i type="int" name="NRMM">     4</i>
     <i name="TIME">      0.40000000</i>
    </separator>
   </separator>
   <separator name="electronic mixer" >
    <i name="AMIX">      0.40000000</i>
    <i name="BMIX">      1.00000000</i>
    <i name="AMIN">      0.10000000</i>
    <i name="AMIX_MAG">      1.60000000</i>
    <i name="BMIX_MAG">      1.00000000</i>
    <separator name="electronic mixer details" >
     <i type="int" name="IMIX">     4</i>
     <i type="logical" name="MIXFIRST"> F  </i>
     <i type="int" name="MAXMIX">   -45</i>
     <i name="WC">    100.00000000</i>
     <i type="int" name="INIMIX">     1</i>
     <i type="int" name="MIXPRE">     1</i>
     <i type="int" name="MREMOVE">     5</i>
    </separator>
   </separator>
   <separator name="electronic dipolcorrection" >
    <i type="logical" name="LDIPOL"> F  </i>
    <i type="logical" name="LMONO"> F  </i>
    <i type="int" name="IDIPOL">     0</i>
    <i name="EPSILON">      1.00000000</i>
    <v name="DIPOL">   -100.00000000   -100.00000000   -100.00000000</v>
    <i name="EFIELD">      0.00000000</i>
   </separator>
  </separator>
  <separator name="grids" >
   <i type="int" name="NGX">    18</i>
   <i type="int" name="NGY">    18</i>
   <i type="int" name="NGZ">    18</i>
   <i type="int" name="NGXF">    36</i>
   <i type="int" name="NGYF">    36</i>
   <i type="int" name="NGZF">    36</i>
   <i type="logical" name="ADDGRID"> F  </i>
  </separator>
  <separator name="ionic" >
   <i type="int" name="NSW">     0</i>
   <i type="int" name="IBRION">    -1</i>
   <i type="int" name="MDALGO">     0</i>
   <i type="int" name="ISIF">     2</i>
   <i name="PSTRESS">      0.00000000</i>
   <i name="EDIFFG">      0.00100000</i>
   <i type="int" name="NFREE">     0</i>
   <i name="POTIM">      0.50000000</i>
   <i name="SMASS">     -3.00000000</i>
   <i name="SCALEE">      1.00000000</i>
  </separator>
  <separator name="ionic md" >
   <i name="TEBEG">      0.00010000</i>
   <i name="TEEND">      0.00010000</i>
   <i type="int" name="NBLOCK">     1</i>
   <i type="int" name="KBLOCK">     1</i>
   <i type="int" name="NPACO">   256</i>
   <i name="APACO">     16.00000000</i>
  </separator>
  <separator name="symmetry" >
   <i type="int" name="ISYM">     2</i>
   <i name="SYMPREC">      0.00001000</i>
  </separator>
  <separator name="dos" >
   <i type="int" name="LORBIT">    11</i>
   <v name="RWIGS">     -1.00000000</v>
   <i type="int" name="NEDOS">   301</i>
   <i name="EMIN">     10.00000000</i>
   <i name="EMAX">    -10.00000000</i>
   <i name="EFERMI">      0.00000000</i>
  </separator>
  <separator name="writing" >
   <i type="int" name="NWRITE">     2</i>
   <i type="logical" name="LWAVE"> F  </i>
   <i type="logical" name="LDOWNSAMPLE"> F  </i>
   <i type="logical" name="LCHARG"> F  </i>
   <i type="logical" name="LPARD"> F  </i>
   <i type="logical" name="LVTOT"> F  </i>
   <i type="logical" name="LVHAR"> F  </i>
   <i type="logical" name="LELF"> F  </i>
   <i type="logical" name="LOPTICS"> F  </i>
   <v name="STM">      0.00000000      0.00000000      0.00000000      0.00000000      0.00000000      0.00000000      0.00000000</v>
  </separator>
  <separator name="performance" >
   <i type="int" name="NPAR">     2</i>
   <i type="int" name="NSIM">     4</i>
   <i type="int" name="NBLK">    -1</i>
   <i type="logical" name="LPLANE"> T  </i>
   <i type="logical" name="LSCALAPACK"> T  </i>
   <i type="logical" name="LSCAAWARE"> F  </i>
   <i type="logical" name="LSCALU"> F  </i>
   <i type="logical" name="LASYNC"> F  </i>
   <i type="logical" name="LORBITALREAL"> F  </i>
  </separator>
  <separator name="miscellaneous" >
   <i type="int" name="IDIOT">     3</i>
   <i type="int" name="ISPECIAL">     0</i>
   <i type="logical" name="LMUSIC"> F  </i>
   <v name="POMASS">     12.01100000</v>
   <v name="DARWINR">      0.00000000</v>
   <v name="DARWINV">      1.00000000</v>
   <i type="logical" name="LCORR"> T  </i>
  </separator>
  <i type="logical" name="GGA_COMPAT"> T  </i>
  <i type="logical" name="LBERRY"> F  </i>
  <i type="int" name="ICORELEVEL">     0</i>
  <i type="logical" name="LDAU"> F  </i>
  <i type="int" name="I_CONSTRAINED_M">     0</i>
  <separator name="electronic exchange-correlation" >
   <i type="string" name="GGA">--</i>
   <i type="int" name="VOSKOWN">     0</i>
   <i type="logical" name="LHFCALC"> F  </i>
   <i type="string" name="PRECFOCK"></i>
   <i type="logical" name="LSYMGRAD"> F  </i>
   <i type="logical" name="LHFONE"> F  </i>
   <i type="logical" name="LRHFCALC"> F  </i>
   <i type="logical" name="LTHOMAS"> F  </i>
   <i type="logical" name="LMODELHF"> F  </i>
   <i name="ENCUT4O">     -1.00000000</i>
   <i type="int" name="EXXOEP">     0</i>
   <i type="int" name="FOURORBIT">     0</i>
   <i name="AEXX">      0.00000000</i>
   <i name="HFALPHA">      0.00000000</i>
   <i name="MCALPHA">      0.00000000</i>
   <i name="ALDAX">      1.00000000</i>
   <i name="AGGAX">      1.00000000</i>
   <i name="ALDAC">      1.00000000</i>
   <i name="AGGAC">      1.00000000</i>
   <i type="int" name="NKREDX">     1</i>
   <i type="int" name="NKREDY">     1</i>
   <i type="int" name="NKREDZ">     1</i>
   <i type="logical" name="SHIFTRED"> F  </i>
   <i type="logical" name="ODDONLY"> F  </i>
   <i type="logical" name="EVENONLY"> F  </i>
   <i type="int" name="LMAXFOCK">     0</i>
   <i type="int" name="NMAXFOCKAE">     0</i>
   <i type="logical" name="LFOCKAEDFT"> F  </i>
   <i name="HFSCREEN">      0.00000000</i>
   <i name="HFSCREENC">      0.00000000</i>
   <i type="int" name="NBANDSGWLOW">     0</i>
  </separator>
  <separator name="vdW DFT" >
   <i type="logical" name="LUSE_VDW"> F  </i>
   <i name="Zab_VDW">     -0.84910000</i>
   <i name="PARAM1">      0.12340000</i>
   <i name="PARAM2">      1.00000000</i>
   <i name="PARAM3">      0.00000000</i>
  </separator>
  <separator name="model GW" >
   <i type="int" name="MODEL_GW">     0</i>
   <i name="MODEL_EPS0">      3.38597637</i>
   <i name="MODEL_ALPHA">      1.00000000</i>
  </separator>
  <separator name="linear response parameters" >
   <i type="logical" name="LEPSILON"> F  </i>
   <i type="logical" name="LRPA"> F  </i>
   <i type="logical" name="LNABLA"> F  </i>
   <i type="logical" name="LVEL"> F  </i>
   <i type="int" name="KINTER">     0</i>
   <i name="CSHIFT">      0.10000000</i>
   <i name="OMEGAMAX">     -1.00000000</i>
   <i name="DEG_THRESHOLD">      0.00200000</i>
   <i name="RTIME">     -0.10000000</i>
   <i name="WPLASMAI">      0.00000000</i>
   <v name="DFIELD">      0.00000000      0.00000000      0.00000000</v>
   <v name="WPLASMA">      0.00000000      0.00000000      0.00000000      0.00000000      0.00000000      0.00000000      0.00000000      0.00000000      0.00000000</v>
  </separator>
  <separator name="orbital magnetization" >
   <i type="logical" name="NUCIND"> F  </i>
   <v name="MAGPOS">      0.00000000      0.00000000      0.00000000</v>
   <i type="logical" name="LNICSALL"> T  </i>
   <i type="logical" name="ORBITALMAG"> F  </i>
   <i type="logical" name="LMAGBLOCH"> F  </i>
   <i type="logical" name="LCHIMAG"> F  </i>
   <i type="logical" name="LGAUGE"> T  </i>
   <i type="int" name="MAGATOM">     0</i>
   <v name="MAGDIPOL">      0.00000000      0.00000000      0.00000000</v>
   <v name="AVECCONST">      0.00000000      0.00000000      0.00000000</v>
  </separator>
  <separator name="response functions" >
   <i type="logical" name="LADDER"> F  </i>
   <i type="logical" name="LRPAFORCE"> F  </i>
   <i type="logical" name="LFXC"> F  </i>
   <i type="logical" name="LHARTREE"> T  </i>
   <i type="int" name="IBSE">     0</i>
   <v type="int" name="KPOINT">    -1     0     0     0</v>
   <i type="logical" name="LTCTE"> F  </i>
   <i type="logical" name="LTETE"> F  </i>
   <i type="logical" name="LTRIPLET"> F  </i>
   <i type="logical" name="LFXCEPS"> F  </i>
   <i type="logical" name="LFXHEG"> F  </i>
   <i type="int" name="NATURALO">     2</i>
   <i type="logical" name="L2ORDER"> F  </i>
   <i type="logical" name="LMP2LT"> F  </i>
   <i type="logical" name="LUSEW"> F  </i>
   <i name="ENCUTGW">     -2.00000000</i>
   <i name="ENCUTGWSOFT">     -2.00000000</i>
   <i name="ENCUTLF">     -1.00000000</i>
   <i type="int" name="LMAXMP2">    -1</i>
   <i name="SCISSOR">      0.00000000</i>
   <i type="int" name="NOMEGA">     0</i>
   <i type="int" name="NOMEGAR">     0</i>
   <i type="int" name="NBANDSGW">    -1</i>
   <i type="int" name="NBANDSO">    -1</i>
   <i type="int" name="NBANDSV">    -1</i>
   <i type="int" name="NELM">     1</i>
   <i type="int" name="NELMHF">     1</i>
   <i type="int" name="DIM">     3</i>
   <i type="int" name="ANTIRES">     0</i>
   <i name="OMEGAMAX">    -30.00000000</i>
   <i name="OMEGAMIN">    -30.00000000</i>
   <i name="OMEGATL">   -200.00000000</i>
   <i type="int" name="OMEGAGRID">   140</i>
   <i name="CSHIFT">     -0.10000000</i>
   <i type="logical" name="SELFENERGY"> F  </i>
   <i type="logical" name="LSPECTRAL"> F  </i>
   <i type="logical" name="LSPECTRALGW"> F  </i>
   <i type="logical" name="LSINGLES"> F  </i>
   <i type="logical" name="LFERMIGW"> F  </i>
   <i type="logical" name="ODDONLYGW"> F  </i>
   <i type="logical" name="EVENONLYGW"> F  </i>
   <i type="int" name="NKREDLFX">     1</i>
   <i type="int" name="NKREDLFY">     1</i>
   <i type="int" name="NKREDLFZ">     1</i>
   <i type="int" name="MAXMEM">  2800</i>
   <i type="int" name="TELESCOPE">     0</i>
   <i type="int" name="TAUPAR">     1</i>
   <i type="int" name="OMEGAPAR">    -1</i>
   <i name="LAMBDA">      1.00000000</i>
  </separator>
  <separator name="External order field" >
   <i name="OFIELD_KAPPA">      0.00000000</i>
   <v name="OFIELD_K">      0.00000000      0.00000000      0.00000000</v>
   <i name="OFIELD_Q6_NEAR">      0.00000000</i>
   <i name="OFIELD_Q6_FAR">      0.00000000</i>
   <i name="OFIELD_A">      0.00000000</i>
  </separator>
 </parameters>
 <atominfo>
  <atoms>       2 </atoms>
  <types>       1 </types>
  <array name="atoms" >
   <dimension dim="1">ion</dimension>
   <field type="string">element</field>
   <field type="int">atomtype</field>
   <set>
    <rc><c>C </c><c>   1</c></rc>
    <rc><c>C </c><c>   1</c></rc>
   </set>
  </array>
  <array name="atomtypes" >
   <dimension dim="1">type</dimension>
   <field type="int">atomspertype</field>
   <field type="string">element</field>
   <field>mass</field>
   <field>valence</field>
   <field type="string">pseudopotential</field>
   <set>
    <rc><c>   2</c><c>C </c><c>     12.01100000</c><c>      4.00000000</c><c>  PAW_PBE C 08Apr2002                   </c></rc>
   </set>
  </array>
 </atominfo>
 <structure name="initialpos" >
  <crystal>
   <varray name="basis" >
    <v>       2.18050236       0.00000000       1.25891346 </v>
    <v>       0.72683412       2.05579703       1.25891346 </v>
    <v>       0.00000000       0.00000000       2.51782692 </v>
   </varray>
   <i name="volume">     11.28658789 </i>
   <varray name="rec_basis" >
    <v>       0.45860991      -0.16214311       0.00000000 </v>
    <v>       0.00000000       0.48642934       0.00000000 </v>
    <v>      -0.22930496      -0.16214311       0.39716789 </v>
   </varray>
  </crystal>
  <varray name="positions" >
   <v>       0.87500000       0.87500000       0.87500000 </v>
   <v>       0.12500000       0.12500000       0.12500000 </v>
  </varray>
 </structure>
 <calculation>
  <scstep>
   <time name="dav">    0.18    0.18</time>
   <time name="total">    0.22    0.23</time>
   <energy>
    <i name="alphaZ">     29.11303816 </i>
    <i name="ewald">   -348.55062700 </i>
    <i name="hartreedc">    -17.50286058 </i>
    <i name="XCdc">     27.43730065 </i>
    <i name="pawpsdc">    217.04409276 </i>
    <i name="pawaedc">   -218.18290438 </i>
    <i name="eentropy">     -0.00045868 </i>
    <i name="bandstr">     11.22316079 </i>
    <i name="atom">    294.29684335 </i>
    <i name="e_fr_energy">     -5.12241494 </i>
    <i name="e_wo_entrp">     -5.12195626 </i>
    <i name="e_0_energy">     -5.12218560 </i>
   </energy>
  </scstep>
  <scstep>
   <time name="dav">    0.25    0.25</time>
   <time name="total">    0.25    0.25</time>
   <energy>
    <i name="e_fr_energy">    -18.76264041 </i>
    <i name="e_wo_entrp">    -18.76264041 </i>
    <i name="e_0_energy">    -18.76264041 </i>
   </energy>
  </scstep>
  <scstep>
   <time name="dav">    0.17    0.17</time>
   <time name="total">    0.17    0.17</time>
   <energy>
    <i name="e_fr_energy">    -18.83272851 </i>
    <i name="e_wo_entrp">    -18.83272851 </i>
    <i name="e_0_energy">    -18.83272851 </i>
   </energy>
  </scstep>
  <scstep>
   <time name="dav">    0.22    0.22</time>
   <time name="total">    0.22    0.22</time>
   <energy>
    <i name="e_fr_energy">    -18.83283063 </i>
    <i name="e_wo_entrp">    -18.83283063 </i>
    <i name="e_0_energy">    -18.83283063 </i>
   </energy>
  </scstep>
  <scstep>
   <time name="dav">    0.16    0.16</time>
   <time name="total">    0.17    0.17</time>
   <energy>
    <i name="e_fr_energy">    -18.83283067 </i>
    <i name="e_wo_entrp">    -18.83283067 </i>
    <i name="e_0_energy">    -18.83283067 </i>
   </energy>
  </scstep>
  <scstep>
   <time name="dav">    0.17    0.17</time>
   <time name="total">    0.21    0.21</time>
   <energy>
    <i name="e_fr_energy">    -18.34643039 </i>
    <i name="e_wo_entrp">    -18.34643039 </i>
    <i name="e_0_energy">    -18.34643039 </i>
   </energy>
  </scstep>
  <scstep>
   <time name="dav">    0.19    0.19</time>
   <time name="total">    0.23    0.23</time>
   <energy>
    <i name="e_fr_energy">    -18.18274279 </i>
    <i name="e_wo_entrp">    -18.18274279 </i>
    <i name="e_0_energy">    -18.18274279 </i>
   </energy>
  </scstep>
  <scstep>
   <time name="dav">    0.17    0.17</time>
   <time name="total">    0.21    0.21</time>
   <energy>
    <i name="e_fr_energy">    -18.18402657 </i>
    <i name="e_wo_entrp">    -18.18402657 </i>
    <i name="e_0_energy">    -18.18402657 </i>
   </energy>
  </scstep>
  <scstep>
   <time name="dav">    0.22    0.22</time>
   <time name="total">    0.25    0.25</time>
   <energy>
    <i name="alphaZ">     29.11303816 </i>
    <i name="ewald">   -348.55062700 </i>
    <i name="hartreedc">    -26.31898890 </i>
    <i name="XCdc">     28.24279224 </i>
    <i name="pawpsdc">    777.80626517 </i>
    <i name="pawaedc">   -779.14883665 </i>
    <i name="eentropy">     -0.00000000 </i>
    <i name="bandstr">      6.37547143 </i>
    <i name="atom">    294.29684335 </i>
    <i name="e_fr_energy">    -18.18404220 </i>
    <i name="e_wo_entrp">    -18.18404220 </i>
    <i name="e_0_energy">    -18.18404220 </i>
   </energy>
  </scstep>
  <structure>
   <crystal>
    <varray name="basis" >
     <v>       2.18050236       0.00000000       1.25891346 </v>
     <v>       0.72683412       2.05579703       1.25891346 </v>
     <v>       0.00000000       0.00000000       2.51782692 </v>
    </varray>
    <i name="volume">     11.28658789 </i>
    <varray name="rec_basis" >
     <v>       0.45860991      -0.16214311       0.00000000 </v>
     <v>       0.00000000       0.48642934       0.00000000 </v>
     <v>      -0.22930496      -0.16214311       0.39716789 </v>
    </varray>
   </crystal>
   <varray name="positions" >
    <v>       0.87500000       0.87500000       0.87500000 </v>
    <v>       0.12500000       0.12500000       0.12500000 </v>
   </varray>
  </structure>
  <varray name="forces" >
   <v>      -0.00000000       0.00000000       0.00000000 </v>
   <v>       0.00000000      -0.00000000      -0.00000000 </v>
  </varray>
  <varray name="stress" >
   <v>      48.67677760      -0.00000000      -0.00000000 </v>
   <v>      -0.00000000      48.67676291       0.00000000 </v>
   <v>       0.00000000       0.00000000      48.67676488 </v>
  </varray>
  <energy>
   <i name="e_fr_energy">    -18.18404220 </i>
   <i name="e_wo_entrp">    -18.18404220 </i>
   <i name="e_0_energy">     -0.00000000 </i>
  </energy>
  <time name="totalsc">    2.06    2.07</time>
  <eigenvalues>
   <array>
    <dimension dim="1">band</dimension>
    <dimension dim="2">kpoint</dimension>
    <dimension dim="3">spin</dimension>
    <field>eigene</field>
    <field>occ</field>
    <set>
     <set comment="spin 1">
      <set comment="kpoint 1">
       <r>  -11.7435    1.0000 </r>
       <r>    9.8015    1.0000 </r>
       <r>    9.8015    1.0000 </r>
       <r>    9.8015    1.0000 </r>
       <r>   15.4071    0.0000 </r>
       <r>   15.4071    0.0000 </r>
       <r>   15.4071    0.0000 </r>
       <r>   23.2487    0.0000 </r>
      </set>
      <set comment="kpoint 2">
       <r>  -11.6200    1.0000 </r>
       <r>    8.9739    1.0000 </r>
       <r>    9.5868    1.0000 </r>
       <r>    9.5868    1.0000 </r>
       <r>   15.6881    0.0000 </r>
       <r>   15.6881    0.0000 </r>
       <r>   15.9060    0.0000 </r>
       <r>   23.3523    0.0000 </r>
      </set>
      <set comment="kpoint 3">
       <r>  -11.2503    1.0000 </r>
       <r>    7.1169    1.0000 </r>
       <r>    9.0730    1.0000 </r>
       <r>    9.0730    1.0000 </r>
       <r>   16.3656    0.0000 </r>
       <r>   16.3656    0.0000 </r>
       <r>   16.8153    0.0000 </r>
       <r>   23.6561    0.0000 </r>
      </set>
      <set comment="kpoint 4">
       <r>  -10.6374    1.0000 </r>
       <r>    4.9030    1.0000 </r>
       <r>    8.4722    1.0000 </r>
       <r>    8.4722    1.0000 </r>
       <r>   17.1323    0.0000 </r>
       <r>   17.1323    0.0000 </r>
       <r>   17.5812    0.0000 </r>
       <r>   24.1208    0.0000 </r>
      </set>
      <set comment="kpoint 5">
       <r>   -9.7880    1.0000 </r>
       <r>    2.6170    1.0000 </r>
       <r>    7.9170    1.0000 </r>
       <r>    7.9170    1.0000 </r>
       <r>   17.7466    0.0000 </r>
       <r>   17.7466    0.0000 </r>
       <r>   18.1034    0.0000 </r>
       <r>   24.6522    0.0000 </r>
      </set>
      <set comment="kpoint 6">
       <r>   -8.7159    1.0000 </r>
       <r>    0.3980    1.0000 </r>
       <r>    7.4713    1.0000 </r>
       <r>    7.4713    1.0000 </r>
       <r>   18.1032    0.0000 </r>
       <r>   18.1032    0.0000 </r>
       <r>   18.4300    0.0000 </r>
       <r>   25.1177    0.0000 </r>
      </set>
      <set comment="kpoint 7">
       <r>   -7.4600    1.0000 </r>
       <r>   -1.6504    1.0000 </r>
       <r>    7.1642    1.0000 </r>
       <r>    7.1642    1.0000 </r>
       <r>   18.2462    0.0000 </r>
       <r>   18.2462    0.0000 </r>
       <r>   18.6194    0.0000 </r>
       <r>   25.4119    0.0000 </r>
      </set>
      <set comment="kpoint 8">
       <r>   -6.2168    1.0000 </r>
       <r>   -3.2974    1.0000 </r>
       <r>    7.0084    1.0000 </r>
       <r>    7.0084    1.0000 </r>
       <r>   18.2807    0.0000 </r>
       <r>   18.2807    0.0000 </r>
       <r>   18.7069    0.0000 </r>
       <r>   25.5378    0.0000 </r>
      </set>
      <set comment="kpoint 9">
       <r>  -11.5788    1.0000 </r>
       <r>    9.1771    1.0000 </r>
       <r>    9.1771    1.0000 </r>
       <r>    9.4033    1.0000 </r>
       <r>   15.2782    0.0000 </r>
       <r>   16.1733    0.0000 </r>
       <r>   16.1733    0.0000 </r>
       <r>   23.3457    0.0000 </r>
      </set>
      <set comment="kpoint 10">
       <r>  -11.2912    1.0000 </r>
       <r>    7.7385    1.0000 </r>
       <r>    8.5639    1.0000 </r>
       <r>    9.1865    1.0000 </r>
       <r>   15.4668    0.0000 </r>
       <r>   16.9734    0.0000 </r>
       <r>   17.0242    0.0000 </r>
       <r>   23.4571    0.0000 </r>
      </set>
      <set comment="kpoint 11">
       <r>  -10.7594    1.0000 </r>
       <r>    5.6674    1.0000 </r>
       <r>    7.9363    1.0000 </r>
       <r>    8.7180    1.0000 </r>
       <r>   16.0938    0.0000 </r>
       <r>   17.8110    0.0000 </r>
       <r>   17.8447    0.0000 </r>
       <r>   23.6686    0.0000 </r>
      </set>
      <set comment="kpoint 12">
       <r>   -9.9887    1.0000 </r>
       <r>    3.4249    1.0000 </r>
       <r>    7.4006    1.0000 </r>
       <r>    8.1262    1.0000 </r>
       <r>   16.8139    0.0000 </r>
       <r>   18.4314    0.0000 </r>
       <r>   18.4626    0.0000 </r>
       <r>   23.9865    0.0000 </r>
      </set>
      <set comment="kpoint 13">
       <r>   -8.9899    1.0000 </r>
       <r>    1.1951    1.0000 </r>
       <r>    7.0077    1.0000 </r>
       <r>    7.5491    1.0000 </r>
       <r>   17.3761    0.0000 </r>
       <r>   18.8012    0.0000 </r>
       <r>   18.8110    0.0000 </r>
       <r>   24.4464    0.0000 </r>
      </set>
      <set comment="kpoint 14">
       <r>   -7.7896    1.0000 </r>
       <r>   -0.9086    1.0000 </r>
       <r>    6.7798    1.0000 </r>
       <r>    7.0585    1.0000 </r>
       <r>   17.7232    0.0000 </r>
       <r>   18.8798    0.0000 </r>
       <r>   19.0144    0.0000 </r>
       <r>   24.9796    0.0000 </r>
      </set>
      <set comment="kpoint 15">
       <r>   -6.4929    1.0000 </r>
       <r>   -2.7348    1.0000 </r>
       <r>    6.6925    1.0000 </r>
       <r>    6.7234    1.0000 </r>
       <r>   17.9422    0.0000 </r>
       <r>   18.7788    0.0000 </r>
       <r>   19.1170    0.0000 </r>
       <r>   25.3962    0.0000 </r>
      </set>
      <set comment="kpoint 16">
       <r>   -5.8759    1.0000 </r>
       <r>   -3.4853    1.0000 </r>
       <r>    6.4732    1.0000 </r>
       <r>    6.8356    1.0000 </r>
       <r>   18.1304    0.0000 </r>
       <r>   18.6072    0.0000 </r>
       <r>   19.1316    0.0000 </r>
       <r>   25.5490    0.0000 </r>
      </set>
      <set comment="kpoint 17">
       <r>   -6.9191    1.0000 </r>
       <r>   -2.1741    1.0000 </r>
       <r>    6.4149    1.0000 </r>
       <r>    7.1064    1.0000 </r>
       <r>   18.3154    0.0000 </r>
       <r>   18.3971    0.0000 </r>
       <r>   19.0618    0.0000 </r>
       <r>   25.4061    0.0000 </r>
      </set>
      <set comment="kpoint 18">
       <r>   -8.2092    1.0000 </r>
       <r>   -0.2253    1.0000 </r>
       <r>    6.5257    1.0000 </r>
       <r>    7.5195    1.0000 </r>
       <r>   18.1063    0.0000 </r>
       <r>   18.4393    0.0000 </r>
       <r>   18.8901    0.0000 </r>
       <r>   25.0076    0.0000 </r>
      </set>
      <set comment="kpoint 19">
       <r>   -9.3473    1.0000 </r>
       <r>    1.9333    1.0000 </r>
       <r>    6.8070    1.0000 </r>
       <r>    8.0478    1.0000 </r>
       <r>   17.6530    0.0000 </r>
       <r>   18.3880    0.0000 </r>
       <r>   18.5638    0.0000 </r>
       <r>   24.5007    0.0000 </r>
      </set>
      <set comment="kpoint 20">
       <r>  -10.2717    1.0000 </r>
       <r>    4.1821    1.0000 </r>
       <r>    7.2504    1.0000 </r>
       <r>    8.6437    1.0000 </r>
       <r>   17.0049    0.0000 </r>
       <r>   17.9795    0.0000 </r>
       <r>   18.0915    0.0000 </r>
       <r>   24.0535    0.0000 </r>
      </set>
      <set comment="kpoint 21">
       <r>  -10.9636    1.0000 </r>
       <r>    6.3876    1.0000 </r>
       <r>    7.8344    1.0000 </r>
       <r>    9.2153    1.0000 </r>
       <r>   16.2777    0.0000 </r>
       <r>   17.1805    0.0000 </r>
       <r>   17.4834    0.0000 </r>
       <r>   23.7182    0.0000 </r>
      </set>
      <set comment="kpoint 22">
       <r>  -11.4144    1.0000 </r>
       <r>    8.2155    1.0000 </r>
       <r>    8.5958    1.0000 </r>
       <r>    9.5951    1.0000 </r>
       <r>   15.7412    0.0000 </r>
       <r>   16.3259    0.0000 </r>
       <r>   16.6373    0.0000 </r>
       <r>   23.4811    0.0000 </r>
      </set>
      <set comment="kpoint 23">
       <r>  -11.0861    1.0000 </r>
       <r>    7.8960    1.0000 </r>
       <r>    7.8960    1.0000 </r>
       <r>    8.3083    1.0000 </r>
       <r>   14.9473    0.0000 </r>
       <r>   17.8727    0.0000 </r>
       <r>   17.8727    0.0000 </r>
       <r>   23.1333    0.0000 </r>
      </set>
      <set comment="kpoint 24">
       <r>  -10.6366    1.0000 </r>
       <r>    6.3202    1.0000 </r>
       <r>    7.2416    1.0000 </r>
       <r>    8.0039    1.0000 </r>
       <r>   15.0857    0.0000 </r>
       <r>   18.7875    0.0000 </r>
       <r>   18.8110    0.0000 </r>
       <r>   22.7486    0.0000 </r>
      </set>
      <set comment="kpoint 25">
       <r>   -9.9470    1.0000 </r>
       <r>    4.2574    1.0000 </r>
       <r>    6.6986    1.0000 </r>
       <r>    7.5074    1.0000 </r>
       <r>   15.6932    0.0000 </r>
       <r>   19.4839    0.0000 </r>
       <r>   19.5697    0.0000 </r>
       <r>   22.5049    0.0000 </r>
      </set>
      <set comment="kpoint 26">
       <r>   -9.0261    1.0000 </r>
       <r>    2.1012    1.0000 </r>
       <r>    6.3165    1.0000 </r>
       <r>    6.8717    1.0000 </r>
       <r>   16.3722    0.0000 </r>
       <r>   19.9295    0.0000 </r>
       <r>   20.0053    0.0000 </r>
       <r>   22.6793    0.0000 </r>
      </set>
      <set comment="kpoint 27">
       <r>   -7.8935    1.0000 </r>
       <r>    0.0018    1.0000 </r>
       <r>    6.1179    1.0000 </r>
       <r>    6.2417    1.0000 </r>
       <r>   16.8657    0.0000 </r>
       <r>   20.1013    0.0000 </r>
       <r>   20.1828    0.0000 </r>
       <r>   23.3911    0.0000 </r>
      </set>
      <set comment="kpoint 28">
       <r>   -6.6124    1.0000 </r>
       <r>   -1.9075    1.0000 </r>
       <r>    5.6992    1.0000 </r>
       <r>    6.1094    1.0000 </r>
       <r>   17.1933    0.0000 </r>
       <r>   19.9500    0.0000 </r>
       <r>   20.3028    0.0000 </r>
       <r>   24.4167    0.0000 </r>
      </set>
      <set comment="kpoint 29">
       <r>   -5.5842    1.0000 </r>
       <r>   -3.1895    1.0000 </r>
       <r>    5.2913    1.0000 </r>
       <r>    6.2869    1.0000 </r>
       <r>   17.4881    0.0000 </r>
       <r>   19.6617    0.0000 </r>
       <r>   20.3290    0.0000 </r>
       <r>   25.2661    0.0000 </r>
      </set>
      <set comment="kpoint 30">
       <r>   -6.1954    1.0000 </r>
       <r>   -2.4443    1.0000 </r>
       <r>    5.0473    1.0000 </r>
       <r>    6.6364    1.0000 </r>
       <r>   17.8227    0.0000 </r>
       <r>   19.2936    0.0000 </r>
       <r>   20.2731    0.0000 </r>
       <r>   25.4077    0.0000 </r>
      </set>
      <set comment="kpoint 31">
       <r>   -7.4801    1.0000 </r>
       <r>   -0.6438    1.0000 </r>
       <r>    4.9862    1.0000 </r>
       <r>    7.1332    1.0000 </r>
       <r>   18.1748    0.0000 </r>
       <r>   18.8316    0.0000 </r>
       <r>   20.1128    0.0000 </r>
       <r>   24.8418    0.0000 </r>
      </set>
      <set comment="kpoint 32">
       <r>   -8.6726    1.0000 </r>
       <r>    1.4176    1.0000 </r>
       <r>    5.1205    1.0000 </r>
       <r>    7.7363    1.0000 </r>
       <r>   18.2238    0.0000 </r>
       <r>   18.4370    0.0000 </r>
       <r>   19.7617    0.0000 </r>
       <r>   24.1244    0.0000 </r>
      </set>
      <set comment="kpoint 33">
       <r>   -9.6663    1.0000 </r>
       <r>    3.5617    1.0000 </r>
       <r>    5.4684    1.0000 </r>
       <r>    8.3764    1.0000 </r>
       <r>   17.4728    0.0000 </r>
       <r>   18.4607    0.0000 </r>
       <r>   19.0910    0.0000 </r>
       <r>   23.7211    0.0000 </r>
      </set>
      <set comment="kpoint 34">
       <r>  -10.4338    1.0000 </r>
       <r>    5.4553    1.0000 </r>
       <r>    6.2194    1.0000 </r>
       <r>    8.9314    1.0000 </r>
       <r>   16.7285    0.0000 </r>
       <r>   18.1425    0.0000 </r>
       <r>   18.1435    0.0000 </r>
       <r>   23.6762    0.0000 </r>
      </set>
      <set comment="kpoint 35">
       <r>  -10.2699    1.0000 </r>
       <r>    6.5594    1.0000 </r>
       <r>    6.5594    1.0000 </r>
       <r>    6.7109    1.0000 </r>
       <r>   14.5378    0.0000 </r>
       <r>   19.8838    0.0000 </r>
       <r>   19.8838    0.0000 </r>
       <r>   21.6884    0.0000 </r>
      </set>
      <set comment="kpoint 36">
       <r>   -9.6629    1.0000 </r>
       <r>    4.9064    1.0000 </r>
       <r>    5.9906    1.0000 </r>
       <r>    6.4114    1.0000 </r>
       <r>   14.6876    0.0000 </r>
       <r>   20.7703    0.0000 </r>
       <r>   20.8090    0.0000 </r>
       <r>   20.8740    0.0000 </r>
      </set>
      <set comment="kpoint 37">
       <r>   -8.8228    1.0000 </r>
       <r>    2.9686    1.0000 </r>
       <r>    5.5887    1.0000 </r>
       <r>    5.8128    1.0000 </r>
       <r>   15.3029    0.0000 </r>
       <r>   20.5721    0.0000 </r>
       <r>   21.3855    0.0000 </r>
       <r>   21.4151    0.0000 </r>
      </set>
      <set comment="kpoint 38">
       <r>   -7.7652    1.0000 </r>
       <r>    0.9802    1.0000 </r>
       <r>    5.0823    1.0000 </r>
       <r>    5.3795    1.0000 </r>
       <r>   15.9162    0.0000 </r>
       <r>   21.0716    0.0000 </r>
       <r>   21.6340    0.0000 </r>
       <r>   21.7262    0.0000 </r>
      </set>
      <set comment="kpoint 39">
       <r>   -6.5323    1.0000 </r>
       <r>   -0.9172    1.0000 </r>
       <r>    4.3859    1.0000 </r>
       <r>    5.3725    1.0000 </r>
       <r>   16.3275    0.0000 </r>
       <r>   21.5218    0.0000 </r>
       <r>   21.8816    0.0000 </r>
       <r>   22.3260    0.0000 </r>
      </set>
      <set comment="kpoint 40">
       <r>   -5.3288    1.0000 </r>
       <r>   -2.4586    1.0000 </r>
       <r>    3.8113    1.0000 </r>
       <r>    5.5651    1.0000 </r>
       <r>   16.6678    0.0000 </r>
       <r>   21.1831    0.0000 </r>
       <r>   21.9316    0.0000 </r>
       <r>   23.9118    0.0000 </r>
      </set>
      <set comment="kpoint 41">
       <r>   -5.3437    1.0000 </r>
       <r>   -2.4261    1.0000 </r>
       <r>    3.4061    1.0000 </r>
       <r>    5.9435    1.0000 </r>
       <r>   17.0681    0.0000 </r>
       <r>   20.6908    0.0000 </r>
       <r>   21.8934    0.0000 </r>
       <r>   25.0955    0.0000 </r>
      </set>
      <set comment="kpoint 42">
       <r>   -6.5475    1.0000 </r>
       <r>   -0.8492    1.0000 </r>
       <r>    3.2013    1.0000 </r>
       <r>    6.4806    1.0000 </r>
       <r>   17.5518    0.0000 </r>
       <r>   20.0517    0.0000 </r>
       <r>   21.7425    0.0000 </r>
       <r>   24.7922    0.0000 </r>
      </set>
      <set comment="kpoint 43">
       <r>   -7.7752    1.0000 </r>
       <r>    1.0627    1.0000 </r>
       <r>    3.2353    1.0000 </r>
       <r>    7.1291    1.0000 </r>
       <r>   18.0514    0.0000 </r>
       <r>   19.2436    0.0000 </r>
       <r>   21.3059    0.0000 </r>
       <r>   23.8954    0.0000 </r>
      </set>
      <set comment="kpoint 44">
       <r>   -8.8289    1.0000 </r>
       <r>    2.8034    1.0000 </r>
       <r>    3.7705    1.0000 </r>
       <r>    7.8070    1.0000 </r>
       <r>   18.3181    0.0000 </r>
       <r>   18.4162    0.0000 </r>
       <r>   20.3357    0.0000 </r>
       <r>   23.5343    0.0000 </r>
      </set>
      <set comment="kpoint 45">
       <r>   -9.1390    1.0000 </r>
       <r>    4.7707    1.0000 </r>
       <r>    5.3871    1.0000 </r>
       <r>    5.3871    1.0000 </r>
       <r>   14.1769    0.0000 </r>
       <r>   19.5399    0.0000 </r>
       <r>   21.9499    0.0000 </r>
       <r>   21.9499    0.0000 </r>
      </set>
      <set comment="kpoint 46">
       <r>   -8.3816    1.0000 </r>
       <r>    3.3610    1.0000 </r>
       <r>    4.8537    1.0000 </r>
       <r>    4.9483    1.0000 </r>
       <r>   14.3863    0.0000 </r>
       <r>   18.7757    0.0000 </r>
       <r>   22.7906    0.0000 </r>
       <r>   22.7907    0.0000 </r>
      </set>
      <set comment="kpoint 47">
       <r>   -7.4037    1.0000 </r>
       <r>    1.7181    1.0000 </r>
       <r>    4.0273    1.0000 </r>
       <r>    4.7050    1.0000 </r>
       <r>   15.0104    0.0000 </r>
       <r>   18.8010    0.0000 </r>
       <r>   23.2147    0.0000 </r>
       <r>   23.2940    0.0000 </r>
      </set>
      <set comment="kpoint 48">
       <r>   -6.2356    1.0000 </r>
       <r>    0.0232    1.0000 </r>
       <r>    3.1341    1.0000 </r>
       <r>    4.6701    1.0000 </r>
       <r>   15.5236    0.0000 </r>
       <r>   19.8222    0.0000 </r>
       <r>   23.2201    0.0000 </r>
       <r>   23.5445    0.0000 </r>
      </set>
      <set comment="kpoint 49">
       <r>   -4.9930    1.0000 </r>
       <r>   -1.5320    1.0000 </r>
       <r>    2.3586    1.0000 </r>
       <r>    4.8437    1.0000 </r>
       <r>   15.8879    0.0000 </r>
       <r>   21.5815    0.0000 </r>
       <r>   22.8871    0.0000 </r>
       <r>   23.6462    0.0000 </r>
      </set>
      <set comment="kpoint 50">
       <r>   -4.4555    1.0000 </r>
       <r>   -2.1111    1.0000 </r>
       <r>    1.7817    1.0000 </r>
       <r>    5.2143    1.0000 </r>
       <r>   16.2979    0.0000 </r>
       <r>   22.2914    0.0000 </r>
       <r>   23.3645    0.0000 </r>
       <r>   23.8766    0.0000 </r>
      </set>
      <set comment="kpoint 51">
       <r>   -5.4497    1.0000 </r>
       <r>   -0.8861    1.0000 </r>
       <r>    1.4619    1.0000 </r>
       <r>    5.7562    1.0000 </r>
       <r>   16.8275    0.0000 </r>
       <r>   21.4574    0.0000 </r>
       <r>   23.4800    0.0000 </r>
       <r>   24.6982    0.0000 </r>
      </set>
      <set comment="kpoint 52">
       <r>   -6.6787    1.0000 </r>
       <r>    0.5626    1.0000 </r>
       <r>    1.6913    1.0000 </r>
       <r>    6.4222    1.0000 </r>
       <r>   17.4490    0.0000 </r>
       <r>   20.4035    0.0000 </r>
       <r>   22.8614    0.0000 </r>
       <r>   23.9637    0.0000 </r>
      </set>
      <set comment="kpoint 53">
       <r>   -7.7078    1.0000 </r>
       <r>    2.6096    1.0000 </r>
       <r>    4.4650    1.0000 </r>
       <r>    4.4650    1.0000 </r>
       <r>   13.9653    0.0000 </r>
       <r>   17.5599    0.0000 </r>
       <r>   23.9070    0.0000 </r>
       <r>   23.9070    0.0000 </r>
      </set>
      <set comment="kpoint 54">
       <r>   -6.8120    1.0000 </r>
       <r>    1.4076    1.0000 </r>
       <r>    3.8034    1.0000 </r>
       <r>    4.1752    1.0000 </r>
       <r>   14.2667    0.0000 </r>
       <r>   17.0456    0.0000 </r>
       <r>   24.5942    0.0000 </r>
       <r>   24.6293    0.0000 </r>
      </set>
      <set comment="kpoint 55">
       <r>   -5.7179    1.0000 </r>
       <r>    0.1690    1.0000 </r>
       <r>    2.7060    1.0000 </r>
       <r>    4.0960    1.0000 </r>
       <r>   14.8617    0.0000 </r>
       <r>   17.5096    0.0000 </r>
       <r>   24.7810    0.0000 </r>
       <r>   24.9986    0.0000 </r>
      </set>
      <set comment="kpoint 56">
       <r>   -4.4987    1.0000 </r>
       <r>   -1.0324    1.0000 </r>
       <r>    1.5506    1.0000 </r>
       <r>    4.2306    1.0000 </r>
       <r>   15.2581    0.0000 </r>
       <r>   19.0725    0.0000 </r>
       <r>   24.4994    0.0000 </r>
       <r>   25.1276    0.0000 </r>
      </set>
      <set comment="kpoint 57">
       <r>   -3.6170    1.0000 </r>
       <r>   -1.8045    1.0000 </r>
       <r>    0.6581    1.0000 </r>
       <r>    4.5706    1.0000 </r>
       <r>   15.6446    0.0000 </r>
       <r>   21.2239    0.0000 </r>
       <r>   23.8142    0.0000 </r>
       <r>   25.1081    0.0000 </r>
      </set>
      <set comment="kpoint 58">
       <r>   -4.2876    1.0000 </r>
       <r>   -1.1649    1.0000 </r>
       <r>    0.3799    1.0000 </r>
       <r>    5.0936    1.0000 </r>
       <r>   16.1666    0.0000 </r>
       <r>   22.7726    0.0000 </r>
       <r>   23.3995    0.0000 </r>
       <r>   24.8772    0.0000 </r>
      </set>
      <set comment="kpoint 59">
       <r>   -5.9989    1.0000 </r>
       <r>    0.3449    1.0000 </r>
       <r>    3.8336    1.0000 </r>
       <r>    3.8336    1.0000 </r>
       <r>   13.9806    0.0000 </r>
       <r>   16.0219    0.0000 </r>
       <r>   25.5548    0.0000 </r>
       <r>   25.5548    0.0000 </r>
      </set>
      <set comment="kpoint 60">
       <r>   -4.9839    1.0000 </r>
       <r>   -0.7721    1.0000 </r>
       <r>    3.2375    1.0000 </r>
       <r>    3.7016    1.0000 </r>
       <r>   14.3860    0.0000 </r>
       <r>   15.7937    0.0000 </r>
       <r>   25.9544    0.0000 </r>
       <r>   26.0320    0.0000 </r>
      </set>
      <set comment="kpoint 61">
       <r>   -3.8170    1.0000 </r>
       <r>   -1.7776    1.0000 </r>
       <r>    2.1265    1.0000 </r>
       <r>    3.7861    1.0000 </r>
       <r>   14.8344    0.0000 </r>
       <r>   16.8102    0.0000 </r>
       <r>   25.7643    0.0000 </r>
       <r>   26.1308    0.0000 </r>
      </set>
      <set comment="kpoint 62">
       <r>   -2.9432    1.0000 </r>
       <r>   -2.3341    1.0000 </r>
       <r>    0.9834    1.0000 </r>
       <r>    4.0820    1.0000 </r>
       <r>   15.1643    0.0000 </r>
       <r>   18.8265    0.0000 </r>
       <r>   25.0234    0.0000 </r>
       <r>   25.8783    0.0000 </r>
      </set>
      <set comment="kpoint 63">
       <r>   -4.0480    1.0000 </r>
       <r>   -1.9079    1.0000 </r>
       <r>    3.5135    1.0000 </r>
       <r>    3.5135    1.0000 </r>
       <r>   14.2873    0.0000 </r>
       <r>   14.9470    0.0000 </r>
       <r>   26.5516    0.0000 </r>
       <r>   26.5516    0.0000 </r>
      </set>
      <set comment="kpoint 64">
       <r>   -2.9668    1.0000 </r>
       <r>   -2.9235    1.0000 </r>
       <r>    3.0559    1.0000 </r>
       <r>    3.5422    1.0000 </r>
       <r>   14.6361    0.0000 </r>
       <r>   15.1649    0.0000 </r>
       <r>   26.4830    0.0000 </r>
       <r>   26.5835    0.0000 </r>
      </set>
      <set comment="kpoint 65">
       <r>  -10.9226    1.0000 </r>
       <r>    6.8376    1.0000 </r>
       <r>    7.3696    1.0000 </r>
       <r>    8.9257    1.0000 </r>
       <r>   15.5972    0.0000 </r>
       <r>   17.8378    0.0000 </r>
       <r>   17.8824    0.0000 </r>
       <r>   23.3818    0.0000 </r>
      </set>
      <set comment="kpoint 66">
       <r>  -10.3118    1.0000 </r>
       <r>    4.9593    1.0000 </r>
       <r>    6.6060    1.0000 </r>
       <r>    8.4801    1.0000 </r>
       <r>   16.1941    0.0000 </r>
       <r>   18.5359    0.0000 </r>
       <r>   18.7441    0.0000 </r>
       <r>   23.3168    0.0000 </r>
      </set>
      <set comment="kpoint 67">
       <r>   -9.4657    1.0000 </r>
       <r>    2.7857    1.0000 </r>
       <r>    6.1287    1.0000 </r>
       <r>    7.8812    1.0000 </r>
       <r>   16.9234    0.0000 </r>
       <r>   18.8794    0.0000 </r>
       <r>   19.4573    0.0000 </r>
       <r>   23.4704    0.0000 </r>
      </set>
      <set comment="kpoint 68">
       <r>   -8.3989    1.0000 </r>
       <r>    0.6280    1.0000 </r>
       <r>    5.8288    1.0000 </r>
       <r>    7.2797    1.0000 </r>
       <r>   17.5061    0.0000 </r>
       <r>   18.9459    0.0000 </r>
       <r>   19.8889    0.0000 </r>
       <r>   24.0121    0.0000 </r>
      </set>
      <set comment="kpoint 69">
       <r>   -7.1512    1.0000 </r>
       <r>   -1.3823    1.0000 </r>
       <r>    5.6927    1.0000 </r>
       <r>    6.7768    1.0000 </r>
       <r>   17.8613    0.0000 </r>
       <r>   18.8444    0.0000 </r>
       <r>   20.1073    0.0000 </r>
       <r>   24.7851    0.0000 </r>
      </set>
      <set comment="kpoint 70">
       <r>   -5.9212    1.0000 </r>
       <r>   -3.0029    1.0000 </r>
       <r>    5.6743    1.0000 </r>
       <r>    6.4659    1.0000 </r>
       <r>   18.0352    0.0000 </r>
       <r>   18.7243    0.0000 </r>
       <r>   20.1976    0.0000 </r>
       <r>   25.3700    0.0000 </r>
      </set>
      <set comment="kpoint 71">
       <r>  -10.1082    1.0000 </r>
       <r>    5.4090    1.0000 </r>
       <r>    6.0693    1.0000 </r>
       <r>    7.5868    1.0000 </r>
       <r>   15.2182    0.0000 </r>
       <r>   19.5617    0.0000 </r>
       <r>   19.8523    0.0000 </r>
       <r>   22.0738    0.0000 </r>
      </set>
      <set comment="kpoint 72">
       <r>   -9.3432    1.0000 </r>
       <r>    3.6157    1.0000 </r>
       <r>    5.3783    1.0000 </r>
       <r>    7.0755    1.0000 </r>
       <r>   15.8462    0.0000 </r>
       <r>   19.9906    0.0000 </r>
       <r>   20.7586    0.0000 </r>
       <r>   21.7215    0.0000 </r>
      </set>
      <set comment="kpoint 73">
       <r>   -8.3532    1.0000 </r>
       <r>    1.5686    1.0000 </r>
       <r>    5.0008    1.0000 </r>
       <r>    6.4584    1.0000 </r>
       <r>   16.5500    0.0000 </r>
       <r>   20.0843    0.0000 </r>
       <r>   21.3146    0.0000 </r>
       <r>   22.0715    0.0000 </r>
      </set>
      <set comment="kpoint 74">
       <r>   -7.1667    1.0000 </r>
       <r>   -0.4278    1.0000 </r>
       <r>    4.7550    1.0000 </r>
       <r>    5.9338    1.0000 </r>
       <r>   17.0448    0.0000 </r>
       <r>   19.9699    0.0000 </r>
       <r>   21.6342    0.0000 </r>
       <r>   23.0304    0.0000 </r>
      </set>
      <set comment="kpoint 75">
       <r>   -5.8924    1.0000 </r>
       <r>   -2.1839    1.0000 </r>
       <r>    4.5250    1.0000 </r>
       <r>    5.6952    1.0000 </r>
       <r>   17.3746    0.0000 </r>
       <r>   19.7458    0.0000 </r>
       <r>   21.7713    0.0000 </r>
       <r>   24.2789    0.0000 </r>
      </set>
      <set comment="kpoint 76">
       <r>   -5.2971    1.0000 </r>
       <r>   -2.8973    1.0000 </r>
       <r>    4.2758    1.0000 </r>
       <r>    5.8176    1.0000 </r>
       <r>   17.6882    0.0000 </r>
       <r>   19.4480    0.0000 </r>
       <r>   21.7554    0.0000 </r>
       <r>   25.1328    0.0000 </r>
      </set>
      <set comment="kpoint 77">
       <r>   -6.3152    1.0000 </r>
       <r>   -1.6254    1.0000 </r>
       <r>    4.1092    1.0000 </r>
       <r>    6.2087    1.0000 </r>
       <r>   18.0418    0.0000 </r>
       <r>   19.0781    0.0000 </r>
       <r>   21.6162    0.0000 </r>
       <r>   24.7595    0.0000 </r>
      </set>
      <set comment="kpoint 78">
       <r>   -7.5847    1.0000 </r>
       <r>    0.2530    1.0000 </r>
       <r>    4.1051    1.0000 </r>
       <r>    6.7734    1.0000 </r>
       <r>   18.2377    0.0000 </r>
       <r>   18.7355    0.0000 </r>
       <r>   21.3311    0.0000 </r>
       <r>   23.7591    0.0000 </r>
      </set>
      <set comment="kpoint 79">
       <r>   -8.7095    1.0000 </r>
       <r>    2.2808    1.0000 </r>
       <r>    4.3156    1.0000 </r>
       <r>    7.4264    1.0000 </r>
       <r>   17.6426    0.0000 </r>
       <r>   18.8808    0.0000 </r>
       <r>   20.7728    0.0000 </r>
       <r>   23.0308    0.0000 </r>
      </set>
      <set comment="kpoint 80">
       <r>   -9.6253    1.0000 </r>
       <r>    4.0888    1.0000 </r>
       <r>    4.9737    1.0000 </r>
       <r>    8.0507    1.0000 </r>
       <r>   16.8135    0.0000 </r>
       <r>   18.8960    0.0000 </r>
       <r>   19.8339    0.0000 </r>
       <r>   22.9619    0.0000 </r>
      </set>
      <set comment="kpoint 81">
       <r>   -8.9805    1.0000 </r>
       <r>    3.9679    1.0000 </r>
       <r>    4.9241    1.0000 </r>
       <r>    5.9750    1.0000 </r>
       <r>   14.8702    0.0000 </r>
       <r>   20.0185    0.0000 </r>
       <r>   21.4030    0.0000 </r>
       <r>   21.9472    0.0000 </r>
      </set>
      <set comment="kpoint 82">
       <r>   -8.0711    1.0000 </r>
       <r>    2.3649    1.0000 </r>
       <r>    4.2550    1.0000 </r>
       <r>    5.4300    1.0000 </r>
       <r>   15.5433    0.0000 </r>
       <r>   19.7871    0.0000 </r>
       <r>   21.6688    0.0000 </r>
       <r>   22.8183    0.0000 </r>
      </set>
      <set comment="kpoint 83">
       <r>   -6.9562    1.0000 </r>
       <r>    0.5430    1.0000 </r>
       <r>    3.7677    1.0000 </r>
       <r>    4.9635    1.0000 </r>
       <r>   16.1847    0.0000 </r>
       <r>   20.3863    0.0000 </r>
       <r>   21.6962    0.0000 </r>
       <r>   23.3309    0.0000 </r>
      </set>
      <set comment="kpoint 84">
       <r>   -5.7031    1.0000 </r>
       <r>   -1.1985    1.0000 </r>
       <r>    3.2412    1.0000 </r>
       <r>    4.8371    1.0000 </r>
       <r>   16.5962    0.0000 </r>
       <r>   21.1933    0.0000 </r>
       <r>   22.0880    0.0000 </r>
       <r>   23.5496    0.0000 </r>
      </set>
      <set comment="kpoint 85">
       <r>   -4.7200    1.0000 </r>
       <r>   -2.3717    1.0000 </r>
       <r>    2.7533    1.0000 </r>
       <r>    5.0336    1.0000 </r>
       <r>   16.9606    0.0000 </r>
       <r>   20.9674    0.0000 </r>
       <r>   23.1926    0.0000 </r>
       <r>   23.9894    0.0000 </r>
      </set>
      <set comment="kpoint 86">
       <r>   -5.3208    1.0000 </r>
       <r>   -1.6360    1.0000 </r>
       <r>    2.4142    1.0000 </r>
       <r>    5.4667    1.0000 </r>
       <r>   17.4076    0.0000 </r>
       <r>   20.4662    0.0000 </r>
       <r>   23.1249    0.0000 </r>
       <r>   24.7070    0.0000 </r>
      </set>
      <set comment="kpoint 87">
       <r>   -6.5675    1.0000 </r>
       <r>    0.0423    1.0000 </r>
       <r>    2.3023    1.0000 </r>
       <r>    6.0694    1.0000 </r>
       <r>   17.9477    0.0000 </r>
       <r>   19.7085    0.0000 </r>
       <r>   22.8307    0.0000 </r>
       <r>   23.8040    0.0000 </r>
      </set>
      <set comment="kpoint 88">
       <r>   -7.7333    1.0000 </r>
       <r>    1.6345    1.0000 </r>
       <r>    2.7088    1.0000 </r>
       <r>    6.7634    1.0000 </r>
       <r>   18.4973    0.0000 </r>
       <r>   18.6938    0.0000 </r>
       <r>   22.1171    0.0000 </r>
       <r>   22.9793    0.0000 </r>
      </set>
      <set comment="kpoint 89">
       <r>   -7.5550    1.0000 </r>
       <r>    2.3155    1.0000 </r>
       <r>    4.0268    1.0000 </r>
       <r>    4.5530    1.0000 </r>
       <r>   14.6611    0.0000 </r>
       <r>   18.1095    0.0000 </r>
       <r>   23.2361    0.0000 </r>
       <r>   23.9257    0.0000 </r>
      </set>
      <set comment="kpoint 90">
       <r>   -6.5181    1.0000 </r>
       <r>    1.0059    1.0000 </r>
       <r>    3.1727    1.0000 </r>
       <r>    4.1524    1.0000 </r>
       <r>   15.3756    0.0000 </r>
       <r>   18.2364    0.0000 </r>
       <r>   23.3403    0.0000 </r>
       <r>   24.6354    0.0000 </r>
      </set>
      <set comment="kpoint 91">
       <r>   -5.3168    1.0000 </r>
       <r>   -0.4168    1.0000 </r>
       <r>    2.2309    1.0000 </r>
       <r>    4.0869    1.0000 </r>
       <r>   15.9063    0.0000 </r>
       <r>   19.4329    0.0000 </r>
       <r>   23.1911    0.0000 </r>
       <r>   24.8789    0.0000 </r>
      </set>
      <set comment="kpoint 92">
       <r>   -4.1683    1.0000 </r>
       <r>   -1.6594    1.0000 </r>
       <r>    1.4348    1.0000 </r>
       <r>    4.3014    1.0000 </r>
       <r>   16.2814    0.0000 </r>
       <r>   21.3385    0.0000 </r>
       <r>   22.8425    0.0000 </r>
       <r>   24.7309    0.0000 </r>
      </set>
      <set comment="kpoint 93">
       <r>   -4.2454    1.0000 </r>
       <r>   -1.5080    1.0000 </r>
       <r>    0.9134    1.0000 </r>
       <r>    4.7390    1.0000 </r>
       <r>   16.7301    0.0000 </r>
       <r>   22.0912    0.0000 </r>
       <r>   23.4597    0.0000 </r>
       <r>   24.3360    0.0000 </r>
      </set>
      <set comment="kpoint 94">
       <r>   -5.3939    1.0000 </r>
       <r>   -0.3494    1.0000 </r>
       <r>    0.9613    1.0000 </r>
       <r>    5.3516    1.0000 </r>
       <r>   17.3041    0.0000 </r>
       <r>   21.0511    0.0000 </r>
       <r>   23.8170    0.0000 </r>
       <r>   24.2365    0.0000 </r>
      </set>
      <set comment="kpoint 95">
       <r>   -5.8566    1.0000 </r>
       <r>    0.3164    1.0000 </r>
       <r>    3.4229    1.0000 </r>
       <r>    3.6445    1.0000 </r>
       <r>   14.6697    0.0000 </r>
       <r>   16.6263    0.0000 </r>
       <r>   24.8929    0.0000 </r>
       <r>   25.5341    0.0000 </r>
      </set>
      <set comment="kpoint 96">
       <r>   -4.7230    1.0000 </r>
       <r>   -0.7514    1.0000 </r>
       <r>    2.3851    1.0000 </r>
       <r>    3.5230    1.0000 </r>
       <r>   15.3702    0.0000 </r>
       <r>   17.1822    0.0000 </r>
       <r>   24.8536    0.0000 </r>
       <r>   25.8321    0.0000 </r>
      </set>
      <set comment="kpoint 97">
       <r>   -3.5392    1.0000 </r>
       <r>   -1.6981    1.0000 </r>
       <r>    1.1890    1.0000 </r>
       <r>    3.7187    1.0000 </r>
       <r>   15.7571    0.0000 </r>
       <r>   18.9342    0.0000 </r>
       <r>   24.4979    0.0000 </r>
       <r>   25.5368    0.0000 </r>
      </set>
      <set comment="kpoint 98">
       <r>   -3.2869    1.0000 </r>
       <r>   -1.7955    1.0000 </r>
       <r>    0.4132    1.0000 </r>
       <r>    4.1363    1.0000 </r>
       <r>   16.1692    0.0000 </r>
       <r>   21.1975    0.0000 </r>
       <r>   23.6173    0.0000 </r>
       <r>   24.9678    0.0000 </r>
      </set>
      <set comment="kpoint 99">
       <r>   -3.9261    1.0000 </r>
       <r>   -1.8303    1.0000 </r>
       <r>    3.1400    1.0000 </r>
       <r>    3.2015    1.0000 </r>
       <r>   14.9600    0.0000 </r>
       <r>   15.5922    0.0000 </r>
       <r>   26.0819    0.0000 </r>
       <r>   26.3618    0.0000 </r>
      </set>
      <set comment="kpoint 100">
       <r>   -2.8333    1.0000 </r>
       <r>   -2.6728    1.0000 </r>
       <r>    2.1325    1.0000 </r>
       <r>    3.3342    1.0000 </r>
       <r>   15.4219    0.0000 </r>
       <r>   16.7757    0.0000 </r>
       <r>   25.7238    0.0000 </r>
       <r>   26.0217    0.0000 </r>
      </set>
      <set comment="kpoint 101">
       <r>   -8.5084    1.0000 </r>
       <r>    2.8074    1.0000 </r>
       <r>    3.8728    1.0000 </r>
       <r>    6.5380    1.0000 </r>
       <r>   16.5818    0.0000 </r>
       <r>   19.9889    0.0000 </r>
       <r>   21.3914    0.0000 </r>
       <r>   21.9656    0.0000 </r>
      </set>
      <set comment="kpoint 102">
       <r>   -7.4588    1.0000 </r>
       <r>    1.1710    1.0000 </r>
       <r>    3.2951    1.0000 </r>
       <r>    5.8715    1.0000 </r>
       <r>   17.4555    0.0000 </r>
       <r>   19.6999    0.0000 </r>
       <r>   21.7064    0.0000 </r>
       <r>   22.9350    0.0000 </r>
      </set>
      <set comment="kpoint 103">
       <r>   -6.2377    1.0000 </r>
       <r>   -0.6574    1.0000 </r>
       <r>    3.1516    1.0000 </r>
       <r>    5.2719    1.0000 </r>
       <r>   17.9989    0.0000 </r>
       <r>   19.4893    0.0000 </r>
       <r>   22.4945    0.0000 </r>
       <r>   23.6715    0.0000 </r>
      </set>
      <set comment="kpoint 104">
       <r>   -5.0469    1.0000 </r>
       <r>   -2.1794    1.0000 </r>
       <r>    3.1412    1.0000 </r>
       <r>    4.9044    1.0000 </r>
       <r>   18.1692    0.0000 </r>
       <r>   19.4105    0.0000 </r>
       <r>   23.1518    0.0000 </r>
       <r>   24.4004    0.0000 </r>
      </set>
      <set comment="kpoint 105">
       <r>   -7.1019    1.0000 </r>
       <r>    1.5587    1.0000 </r>
       <r>    3.0208    1.0000 </r>
       <r>    4.8065    1.0000 </r>
       <r>   16.4202    0.0000 </r>
       <r>   19.4743    0.0000 </r>
       <r>   21.6827    0.0000 </r>
       <r>   23.9830    0.0000 </r>
      </set>
      <set comment="kpoint 106">
       <r>   -5.9468    1.0000 </r>
       <r>    0.1890    1.0000 </r>
       <r>    2.4201    1.0000 </r>
       <r>    4.1887    1.0000 </r>
       <r>   17.2985    0.0000 </r>
       <r>   19.8974    0.0000 </r>
       <r>   21.6185    0.0000 </r>
       <r>   24.6578    0.0000 </r>
      </set>
      <set comment="kpoint 107">
       <r>   -4.7194    1.0000 </r>
       <r>   -1.2930    1.0000 </r>
       <r>    2.0763    1.0000 </r>
       <r>    3.8868    1.0000 </r>
       <r>   17.7615    0.0000 </r>
       <r>   20.5836    0.0000 </r>
       <r>   22.1283    0.0000 </r>
       <r>   24.6608    0.0000 </r>
      </set>
      <set comment="kpoint 108">
       <r>   -4.1690    1.0000 </r>
       <r>   -1.8977    1.0000 </r>
       <r>    1.7674    1.0000 </r>
       <r>    4.0139    1.0000 </r>
       <r>   18.1121    0.0000 </r>
       <r>   20.4304    0.0000 </r>
       <r>   23.5832    0.0000 </r>
       <r>   23.9284    0.0000 </r>
      </set>
      <set comment="kpoint 109">
       <r>   -5.1451    1.0000 </r>
       <r>   -0.7500    1.0000 </r>
       <r>    1.5946    1.0000 </r>
       <r>    4.4756    1.0000 </r>
       <r>   18.5478    0.0000 </r>
       <r>   19.8221    0.0000 </r>
       <r>   22.7380    0.0000 </r>
       <r>   24.5440    0.0000 </r>
      </set>
      <set comment="kpoint 110">
       <r>   -6.3669    1.0000 </r>
       <r>    0.5992    1.0000 </r>
       <r>    1.9063    1.0000 </r>
       <r>    5.1422    1.0000 </r>
       <r>   18.7094    0.0000 </r>
       <r>   19.1172    0.0000 </r>
       <r>   21.9795    0.0000 </r>
       <r>   24.0958    0.0000 </r>
      </set>
      <set comment="kpoint 111">
       <r>   -5.4395    1.0000 </r>
       <r>    0.1244    1.0000 </r>
       <r>    2.4755    1.0000 </r>
       <r>    3.3523    1.0000 </r>
       <r>   16.4376    0.0000 </r>
       <r>   18.1948    0.0000 </r>
       <r>   23.2009    0.0000 </r>
       <r>   25.4206    0.0000 </r>
      </set>
      <set comment="kpoint 112">
       <r>   -4.2394    1.0000 </r>
       <r>   -0.9091    1.0000 </r>
       <r>    1.6374    1.0000 </r>
       <r>    3.0363    1.0000 </r>
       <r>   17.2336    0.0000 </r>
       <r>   19.2693    0.0000 </r>
       <r>   22.9272    0.0000 </r>
       <r>   25.2535    0.0000 </r>
      </set>
      <set comment="kpoint 113">
       <r>   -3.3449    1.0000 </r>
       <r>   -1.6741    1.0000 </r>
       <r>    0.8690    1.0000 </r>
       <r>    3.2457    1.0000 </r>
       <r>   17.6227    0.0000 </r>
       <r>   21.1764    0.0000 </r>
       <r>   22.5855    0.0000 </r>
       <r>   24.2106    0.0000 </r>
      </set>
      <set comment="kpoint 114">
       <r>   -3.9907    1.0000 </r>
       <r>   -1.1028    1.0000 </r>
       <r>    0.6524    1.0000 </r>
       <r>    3.7599    1.0000 </r>
       <r>   18.0638    0.0000 </r>
       <r>   21.2791    0.0000 </r>
       <r>   23.1826    0.0000 </r>
       <r>   23.5909    0.0000 </r>
      </set>
      <set comment="kpoint 115">
       <r>   -3.5828    1.0000 </r>
       <r>   -1.6529    1.0000 </r>
       <r>    2.2866    1.0000 </r>
       <r>    2.5313    1.0000 </r>
       <r>   16.7035    0.0000 </r>
       <r>   17.2732    0.0000 </r>
       <r>   24.6675    0.0000 </r>
       <r>   25.6333    0.0000 </r>
      </set>
      <set comment="kpoint 116">
       <r>   -2.6569    1.0000 </r>
       <r>   -2.2537    1.0000 </r>
       <r>    1.2774    1.0000 </r>
       <r>    2.6990    1.0000 </r>
       <r>   17.2268    0.0000 </r>
       <r>   19.0029    0.0000 </r>
       <r>   24.1412    0.0000 </r>
       <r>   24.6096    0.0000 </r>
      </set>
      <set comment="kpoint 117">
       <r>   -4.7849    1.0000 </r>
       <r>   -0.3870    1.0000 </r>
       <r>    1.4434    1.0000 </r>
       <r>    3.3888    1.0000 </r>
       <r>   18.7862    0.0000 </r>
       <r>   19.6780    0.0000 </r>
       <r>   21.6193    0.0000 </r>
       <r>   24.9688    0.0000 </r>
      </set>
      <set comment="kpoint 118">
       <r>   -3.6596    1.0000 </r>
       <r>   -1.3563    1.0000 </r>
       <r>    1.1475    1.0000 </r>
       <r>    2.8764    1.0000 </r>
       <r>   19.2724    0.0000 </r>
       <r>   20.2650    0.0000 </r>
       <r>   22.2445    0.0000 </r>
       <r>   23.8234    0.0000 </r>
      </set>
      <set comment="kpoint 119">
       <r>   -3.1057    1.0000 </r>
       <r>   -1.5679    1.0000 </r>
       <r>    1.4242    1.0000 </r>
       <r>    2.0352    1.0000 </r>
       <r>   19.0216    0.0000 </r>
       <r>   19.4164    0.0000 </r>
       <r>   22.6335    0.0000 </r>
       <r>   24.0778    0.0000 </r>
      </set>
      <set comment="kpoint 120">
       <r>   -2.7116    1.0000 </r>
       <r>   -1.8012    1.0000 </r>
       <r>    0.9829    1.0000 </r>
       <r>    2.1225    1.0000 </r>
       <r>   19.4402    0.0000 </r>
       <r>   20.9360    0.0000 </r>
       <r>   22.3993    0.0000 </r>
       <r>   22.5841    0.0000 </r>
      </set>
     </set>
    </set>
   </array>
  </eigenvalues>
  <separator name="orbital magnetization" >
   <v name="MAGDIPOLOUT">      0.00000000      0.00000000      0.00000000</v>
  </separator>
  <dos>
   <i name="efermi">     10.09450041 </i>
   <total>
    <array>
     <dimension dim="1">gridpoints</dimension>
     <dimension dim="2">spin</dimension>
     <field>energy</field>
     <field>total</field>
     <field>integrated</field>
     <set>
      <set comment="spin 1">
       <r>   -13.6599     0.0000     0.0000 </r>
       <r>   -13.5193     0.0000     0.0000 </r>
       <r>   -13.3788     0.0000     0.0000 </r>
       <r>   -13.2383     0.0000     0.0000 </r>
       <r>   -13.0977     0.0000     0.0000 </r>
       <r>   -12.9572     0.0000     0.0000 </r>
       <r>   -12.8167     0.0000     0.0000 </r>
       <r>   -12.6762     0.0000     0.0000 </r>
       <r>   -12.5356     0.0000     0.0000 </r>
       <r>   -12.3951     0.0000     0.0000 </r>
       <r>   -12.2546     0.0000     0.0000 </r>
       <r>   -12.1140     0.0000     0.0000 </r>
       <r>   -11.9735     0.0000     0.0000 </r>
       <r>   -11.8330     0.0000     0.0000 </r>
       <r>   -11.6924     0.0046     0.0006 </r>
       <r>   -11.5519     0.0521     0.0080 </r>
       <r>   -11.4114     0.0336     0.0127 </r>
       <r>   -11.2708     0.1057     0.0275 </r>
       <r>   -11.1303     0.0555     0.0353 </r>
       <r>   -10.9898     0.0487     0.0422 </r>
       <r>   -10.8492     0.1749     0.0668 </r>
       <r>   -10.7087     0.0978     0.0805 </r>
       <r>   -10.5682     0.1362     0.0997 </r>
       <r>   -10.4276     0.0324     0.1042 </r>
       <r>   -10.2871     0.2165     0.1346 </r>
       <r>   -10.1466     0.1481     0.1555 </r>
       <r>   -10.0060     0.1233     0.1728 </r>
       <r>    -9.8655     0.1656     0.1961 </r>
       <r>    -9.7250     0.0422     0.2020 </r>
       <r>    -9.5844     0.2809     0.2415 </r>
       <r>    -9.4439     0.1636     0.2645 </r>
       <r>    -9.3034     0.3200     0.3094 </r>
       <r>    -9.1628     0.0435     0.3156 </r>
       <r>    -9.0223     0.1040     0.3302 </r>
       <r>    -8.8818     0.2264     0.3620 </r>
       <r>    -8.7412     0.1905     0.3888 </r>
       <r>    -8.6007     0.2889     0.4294 </r>
       <r>    -8.4602     0.1043     0.4440 </r>
       <r>    -8.3196     0.4636     0.5092 </r>
       <r>    -8.1791     0.1226     0.5264 </r>
       <r>    -8.0386     0.1859     0.5525 </r>
       <r>    -7.8980     0.0818     0.5640 </r>
       <r>    -7.7575     0.2947     0.6054 </r>
       <r>    -7.6170     0.2315     0.6380 </r>
       <r>    -7.4765     0.3918     0.6930 </r>
       <r>    -7.3359     0.3071     0.7362 </r>
       <r>    -7.1954     0.0668     0.7456 </r>
       <r>    -7.0549     0.4325     0.8064 </r>
       <r>    -6.9143     0.2444     0.8407 </r>
       <r>    -6.7738     0.1560     0.8626 </r>
       <r>    -6.6333     0.0952     0.8760 </r>
       <r>    -6.4927     0.6579     0.9685 </r>
       <r>    -6.3522     0.2181     0.9991 </r>
       <r>    -6.2117     0.4895     1.0679 </r>
       <r>    -6.0711     0.1562     1.0899 </r>
       <r>    -5.9306     0.2774     1.1288 </r>
       <r>    -5.7901     0.5563     1.2070 </r>
       <r>    -5.6495     0.2917     1.2480 </r>
       <r>    -5.5090     0.1194     1.2648 </r>
       <r>    -5.3685     0.3455     1.3133 </r>
       <r>    -5.2279     0.7567     1.4197 </r>
       <r>    -5.0874     0.2236     1.4511 </r>
       <r>    -4.9469     0.3640     1.5022 </r>
       <r>    -4.8063     0.0574     1.5103 </r>
       <r>    -4.6658     0.6395     1.6002 </r>
       <r>    -4.5253     0.0619     1.6089 </r>
       <r>    -4.3847     0.1748     1.6335 </r>
       <r>    -4.2442     0.2479     1.6683 </r>
       <r>    -4.1037     0.6027     1.7530 </r>
       <r>    -3.9631     0.1310     1.7714 </r>
       <r>    -3.8226     0.1526     1.7929 </r>
       <r>    -3.6821     0.1138     1.8089 </r>
       <r>    -3.5415     0.4356     1.8701 </r>
       <r>    -3.4010     0.2268     1.9019 </r>
       <r>    -3.2605     0.2993     1.9440 </r>
       <r>    -3.1199     0.1610     1.9666 </r>
       <r>    -2.9794     0.2510     2.0019 </r>
       <r>    -2.8389     0.4084     2.0593 </r>
       <r>    -2.6983     0.2545     2.0951 </r>
       <r>    -2.5578     0.2176     2.1256 </r>
       <r>    -2.4173     0.2487     2.1606 </r>
       <r>    -2.2767     0.3322     2.2073 </r>
       <r>    -2.1362     0.5523     2.2849 </r>
       <r>    -1.9957     0.1331     2.3036 </r>
       <r>    -1.8552     0.3403     2.3514 </r>
       <r>    -1.7146     0.5985     2.4355 </r>
       <r>    -1.5741     1.0766     2.5868 </r>
       <r>    -1.4336     0.3840     2.6408 </r>
       <r>    -1.2930     0.4842     2.7088 </r>
       <r>    -1.1525     0.3323     2.7555 </r>
       <r>    -1.0120     0.2042     2.7842 </r>
       <r>    -0.8714     0.4732     2.8507 </r>
       <r>    -0.7309     0.5438     2.9271 </r>
       <r>    -0.5904     0.4154     2.9855 </r>
       <r>    -0.4498     0.1059     3.0004 </r>
       <r>    -0.3093     0.4999     3.0706 </r>
       <r>    -0.1688     0.1095     3.0860 </r>
       <r>    -0.0282     0.0376     3.0913 </r>
       <r>     0.1123     0.4129     3.1493 </r>
       <r>     0.2528     0.4613     3.2142 </r>
       <r>     0.3934     0.3058     3.2571 </r>
       <r>     0.5339     0.2074     3.2863 </r>
       <r>     0.6744     0.5833     3.3682 </r>
       <r>     0.8150     0.0938     3.3814 </r>
       <r>     0.9555     0.4837     3.4494 </r>
       <r>     1.0960     0.5661     3.5290 </r>
       <r>     1.2366     0.6826     3.6249 </r>
       <r>     1.3771     0.1822     3.6505 </r>
       <r>     1.5176     0.6908     3.7476 </r>
       <r>     1.6582     0.7957     3.8594 </r>
       <r>     1.7987     0.4614     3.9242 </r>
       <r>     1.9392     0.2121     3.9540 </r>
       <r>     2.0798     0.3165     3.9985 </r>
       <r>     2.2203     0.5436     4.0749 </r>
       <r>     2.3608     0.9126     4.2032 </r>
       <r>     2.5014     0.8117     4.3172 </r>
       <r>     2.6419     0.1665     4.3406 </r>
       <r>     2.7824     0.5938     4.4241 </r>
       <r>     2.9230     0.4609     4.4888 </r>
       <r>     3.0635     0.3948     4.5443 </r>
       <r>     3.2040     1.0117     4.6865 </r>
       <r>     3.3446     1.0157     4.8292 </r>
       <r>     3.4851     0.6055     4.9143 </r>
       <r>     3.6256     0.5230     4.9878 </r>
       <r>     3.7661     0.6677     5.0817 </r>
       <r>     3.9067     0.7277     5.1839 </r>
       <r>     4.0472     0.5591     5.2625 </r>
       <r>     4.1877     1.3792     5.4563 </r>
       <r>     4.3283     1.0874     5.6091 </r>
       <r>     4.4688     0.3592     5.6596 </r>
       <r>     4.6093     0.5165     5.7322 </r>
       <r>     4.7499     0.4372     5.7936 </r>
       <r>     4.8904     0.8272     5.9099 </r>
       <r>     5.0309     1.3109     6.0941 </r>
       <r>     5.1715     0.5693     6.1741 </r>
       <r>     5.3120     0.3959     6.2298 </r>
       <r>     5.4525     0.9407     6.3620 </r>
       <r>     5.5931     0.4403     6.4238 </r>
       <r>     5.7336     0.8198     6.5390 </r>
       <r>     5.8741     0.7433     6.6435 </r>
[...]
       </set>
       <set comment="band 5">
        <r>  0.0429  0.0101  0.2067  0.0194  0.0000  0.0000  0.0000  0.0000  0.0000 </r>
        <r>  0.0429  0.0101  0.2067  0.0194  0.0000  0.0000  0.0000  0.0000  0.0000 </r>
       </set>
       <set comment="band 6">
        <r>  0.0293  0.0718  0.0542  0.0720  0.0000  0.0000  0.0000  0.0000  0.0000 </r>
        <r>  0.0293  0.0718  0.0542  0.0720  0.0000  0.0000  0.0000  0.0000  0.0000 </r>
       </set>
       <set comment="band 7">
        <r>  0.1518  0.0724  0.0032  0.0656  0.0000  0.0000  0.0000  0.0000  0.0000 </r>
        <r>  0.1518  0.0724  0.0032  0.0656  0.0000  0.0000  0.0000  0.0000  0.0000 </r>
       </set>
       <set comment="band 8">
        <r>  0.0302  0.1092  0.0794  0.1576  0.0000  0.0000  0.0000  0.0000  0.0000 </r>
        <r>  0.0302  0.1092  0.0794  0.1576  0.0000  0.0000  0.0000  0.0000  0.0000 </r>
       </set>
      </set>
      <set comment="kpoint 111">
       <set comment="band 1">
        <r>  0.2316  0.0131  0.0035  0.0611  0.0000  0.0000  0.0000  0.0000  0.0000 </r>
        <r>  0.2316  0.0131  0.0035  0.0611  0.0000  0.0000  0.0000  0.0000  0.0000 </r>
       </set>
       <set comment="band 2">
        <r>  0.1921  0.0341  0.0222  0.0990  0.0000  0.0000  0.0000  0.0000  0.0000 </r>
        <r>  0.1921  0.0341  0.0222  0.0990  0.0000  0.0000  0.0000  0.0000  0.0000 </r>
       </set>
       <set comment="band 3">
        <r>  0.0208  0.0678  0.1350  0.0820  0.0000  0.0000  0.0000  0.0000  0.0000 </r>
        <r>  0.0208  0.0678  0.1350  0.0820  0.0000  0.0000  0.0000  0.0000  0.0000 </r>
       </set>
       <set comment="band 4">
        <r>  0.0011  0.1633  0.1253  0.0170  0.0000  0.0000  0.0000  0.0000  0.0000 </r>
        <r>  0.0011  0.1633  0.1253  0.0170  0.0000  0.0000  0.0000  0.0000  0.0000 </r>
       </set>
       <set comment="band 5">
        <r>  0.0808  0.0924  0.0355  0.0222  0.0000  0.0000  0.0000  0.0000  0.0000 </r>
        <r>  0.0808  0.0924  0.0355  0.0222  0.0000  0.0000  0.0000  0.0000  0.0000 </r>
       </set>
       <set comment="band 6">
        <r>  0.0790  0.0031  0.0332  0.0648  0.0000  0.0000  0.0000  0.0000  0.0000 </r>
        <r>  0.0790  0.0031  0.0332  0.0648  0.0000  0.0000  0.0000  0.0000  0.0000 </r>
       </set>
       <set comment="band 7">
        <r>  0.0614  0.1293  0.1320  0.0239  0.0000  0.0000  0.0000  0.0000  0.0000 </r>
        <r>  0.0614  0.1293  0.1320  0.0239  0.0000  0.0000  0.0000  0.0000  0.0000 </r>
       </set>
       <set comment="band 8">
        <r>  0.0138  0.1217  0.1933  0.0723  0.0000  0.0000  0.0000  0.0000  0.0000 </r>
        <r>  0.0138  0.1217  0.1933  0.0723  0.0000  0.0000  0.0000  0.0000  0.0000 </r>
       </set>
      </set>
      <set comment="kpoint 112">
       <set comment="band 1">
        <r>  0.2322  0.0157  0.0040  0.0681  0.0000  0.0000  0.0000  0.0000  0.0000 </r>
        <r>  0.2322  0.0157  0.0040  0.0681  0.0000  0.0000  0.0000  0.0000  0.0000 </r>
       </set>
       <set comment="band 2">
        <r>  0.2002  0.0278  0.0076  0.1050  0.0000  0.0000  0.0000  0.0000  0.0000 </r>
        <r>  0.2002  0.0278  0.0076  0.1050  0.0000  0.0000  0.0000  0.0000  0.0000 </r>
       </set>
       <set comment="band 3">
        <r>  0.0220  0.1732  0.0281  0.0677  0.0000  0.0000  0.0000  0.0000  0.0000 </r>
        <r>  0.0220  0.1732  0.0281  0.0677  0.0000  0.0000  0.0000  0.0000  0.0000 </r>
       </set>
       <set comment="band 4">
        <r>  0.0037  0.0451  0.2479  0.0079  0.0000  0.0000  0.0000  0.0000  0.0000 </r>
        <r>  0.0037  0.0451  0.2479  0.0079  0.0000  0.0000  0.0000  0.0000  0.0000 </r>
       </set>
       <set comment="band 5">
        <r>  0.0753  0.0676  0.0564  0.0179  0.0000  0.0000  0.0000  0.0000  0.0000 </r>
        <r>  0.0753  0.0676  0.0564  0.0179  0.0000  0.0000  0.0000  0.0000  0.0000 </r>
       </set>
       <set comment="band 6">
        <r>  0.0584  0.0568  0.0185  0.0805  0.0000  0.0000  0.0000  0.0000  0.0000 </r>
        <r>  0.0584  0.0568  0.0185  0.0805  0.0000  0.0000  0.0000  0.0000  0.0000 </r>
       </set>
       <set comment="band 7">
        <r>  0.0761  0.1060  0.1424  0.0153  0.0000  0.0000  0.0000  0.0000  0.0000 </r>
        <r>  0.0761  0.1060  0.1424  0.0153  0.0000  0.0000  0.0000  0.0000  0.0000 </r>
       </set>
       <set comment="band 8">
        <r>  0.0334  0.1097  0.1583  0.0900  0.0000  0.0000  0.0000  0.0000  0.0000 </r>
        <r>  0.0334  0.1097  0.1583  0.0900  0.0000  0.0000  0.0000  0.0000  0.0000 </r>
       </set>
      </set>
      <set comment="kpoint 113">
       <set comment="band 1">
        <r>  0.2526  0.0340  0.0064  0.0438  0.0000  0.0000  0.0000  0.0000  0.0000 </r>
        <r>  0.2526  0.0340  0.0064  0.0438  0.0000  0.0000  0.0000  0.0000  0.0000 </r>
       </set>
       <set comment="band 2">
        <r>  0.1833  0.0181  0.0021  0.1222  0.0000  0.0000  0.0000  0.0000  0.0000 </r>
        <r>  0.1833  0.0181  0.0021  0.1222  0.0000  0.0000  0.0000  0.0000  0.0000 </r>
       </set>
       <set comment="band 3">
        <r>  0.0201  0.1843  0.0053  0.0694  0.0000  0.0000  0.0000  0.0000  0.0000 </r>
        <r>  0.0201  0.1843  0.0053  0.0694  0.0000  0.0000  0.0000  0.0000  0.0000 </r>
       </set>
       <set comment="band 4">
        <r>  0.0078  0.0144  0.2766  0.0101  0.0000  0.0000  0.0000  0.0000  0.0000 </r>
        <r>  0.0078  0.0144  0.2766  0.0101  0.0000  0.0000  0.0000  0.0000  0.0000 </r>
       </set>
       <set comment="band 5">
        <r>  0.0671  0.0492  0.0596  0.0343  0.0000  0.0000  0.0000  0.0000  0.0000 </r>
        <r>  0.0671  0.0492  0.0596  0.0343  0.0000  0.0000  0.0000  0.0000  0.0000 </r>
       </set>
       <set comment="band 6">
        <r>  0.0244  0.0883  0.0611  0.0654  0.0000  0.0000  0.0000  0.0000  0.0000 </r>
        <r>  0.0244  0.0883  0.0611  0.0654  0.0000  0.0000  0.0000  0.0000  0.0000 </r>
       </set>
       <set comment="band 7">
        <r>  0.0893  0.0816  0.1432  0.0315  0.0000  0.0000  0.0000  0.0000  0.0000 </r>
        <r>  0.0893  0.0816  0.1432  0.0315  0.0000  0.0000  0.0000  0.0000  0.0000 </r>
       </set>
       <set comment="band 8">
        <r>  0.0708  0.1055  0.0681  0.1105  0.0000  0.0000  0.0000  0.0000  0.0000 </r>
        <r>  0.0708  0.1055  0.0681  0.1105  0.0000  0.0000  0.0000  0.0000  0.0000 </r>
       </set>
      </set>
      <set comment="kpoint 114">
       <set comment="band 1">
        <r>  0.2468  0.0448  0.0061  0.0308  0.0000  0.0000  0.0000  0.0000  0.0000 </r>
        <r>  0.2468  0.0448  0.0061  0.0308  0.0000  0.0000  0.0000  0.0000  0.0000 </r>
       </set>
       <set comment="band 2">
        <r>  0.1883  0.0634  0.0015  0.0802  0.0000  0.0000  0.0000  0.0000  0.0000 </r>
        <r>  0.1883  0.0634  0.0015  0.0802  0.0000  0.0000  0.0000  0.0000  0.0000 </r>
       </set>
       <set comment="band 3">
        <r>  0.0176  0.1291  0.0027  0.1257  0.0000  0.0000  0.0000  0.0000  0.0000 </r>
        <r>  0.0176  0.1291  0.0027  0.1257  0.0000  0.0000  0.0000  0.0000  0.0000 </r>
       </set>
       <set comment="band 4">
        <r>  0.0095  0.0069  0.2846  0.0137  0.0000  0.0000  0.0000  0.0000  0.0000 </r>
        <r>  0.0095  0.0069  0.2846  0.0137  0.0000  0.0000  0.0000  0.0000  0.0000 </r>
       </set>
       <set comment="band 5">
        <r>  0.0557  0.0462  0.0590  0.0520  0.0000  0.0000  0.0000  0.0000  0.0000 </r>
        <r>  0.0557  0.0462  0.0590  0.0520  0.0000  0.0000  0.0000  0.0000  0.0000 </r>
       </set>
       <set comment="band 6">
        <r>  0.0224  0.0082  0.2450  0.0109  0.0000  0.0000  0.0000  0.0000  0.0000 </r>
        <r>  0.0224  0.0082  0.2450  0.0109  0.0000  0.0000  0.0000  0.0000  0.0000 </r>
       </set>
       <set comment="band 7">
        <r>  0.1146  0.1226  0.0004  0.0873  0.0000  0.0000  0.0000  0.0000  0.0000 </r>
        <r>  0.1146  0.1226  0.0004  0.0873  0.0000  0.0000  0.0000  0.0000  0.0000 </r>
       </set>
       <set comment="band 8">
        <r>  0.0648  0.1421  0.0005  0.1344  0.0000  0.0000  0.0000  0.0000  0.0000 </r>
        <r>  0.0648  0.1421  0.0005  0.1344  0.0000  0.0000  0.0000  0.0000  0.0000 </r>
       </set>
      </set>
      <set comment="kpoint 115">
       <set comment="band 1">
        <r>  0.2224  0.0228  0.0037  0.0730  0.0000  0.0000  0.0000  0.0000  0.0000 </r>
        <r>  0.2224  0.0228  0.0037  0.0730  0.0000  0.0000  0.0000  0.0000  0.0000 </r>
       </set>
       <set comment="band 2">
        <r>  0.2128  0.0427  0.0070  0.0741  0.0000  0.0000  0.0000  0.0000  0.0000 </r>
        <r>  0.2128  0.0427  0.0070  0.0741  0.0000  0.0000  0.0000  0.0000  0.0000 </r>
       </set>
       <set comment="band 3">
        <r>  0.0136  0.0668  0.1368  0.0855  0.0000  0.0000  0.0000  0.0000  0.0000 </r>
        <r>  0.0136  0.0668  0.1368  0.0855  0.0000  0.0000  0.0000  0.0000  0.0000 </r>
       </set>
       <set comment="band 4">
        <r>  0.0037  0.1387  0.1364  0.0222  0.0000  0.0000  0.0000  0.0000  0.0000 </r>
        <r>  0.0037  0.1387  0.1364  0.0222  0.0000  0.0000  0.0000  0.0000  0.0000 </r>
       </set>
       <set comment="band 5">
        <r>  0.0864  0.0788  0.0343  0.0129  0.0000  0.0000  0.0000  0.0000  0.0000 </r>
        <r>  0.0864  0.0788  0.0343  0.0129  0.0000  0.0000  0.0000  0.0000  0.0000 </r>
       </set>
       <set comment="band 6">
        <r>  0.0856  0.0039  0.0333  0.0722  0.0000  0.0000  0.0000  0.0000  0.0000 </r>
        <r>  0.0856  0.0039  0.0333  0.0722  0.0000  0.0000  0.0000  0.0000  0.0000 </r>
       </set>
       <set comment="band 7">
        <r>  0.0418  0.1483  0.1500  0.0259  0.0000  0.0000  0.0000  0.0000  0.0000 </r>
        <r>  0.0418  0.1483  0.1500  0.0259  0.0000  0.0000  0.0000  0.0000  0.0000 </r>
       </set>
       <set comment="band 8">
        <r>  0.0245  0.0902  0.1779  0.1018  0.0000  0.0000  0.0000  0.0000  0.0000 </r>
        <r>  0.0245  0.0902  0.1779  0.1018  0.0000  0.0000  0.0000  0.0000  0.0000 </r>
       </set>
      </set>
      <set comment="kpoint 116">
       <set comment="band 1">
        <r>  0.2389  0.0336  0.0079  0.0575  0.0000  0.0000  0.0000  0.0000  0.0000 </r>
        <r>  0.2389  0.0336  0.0079  0.0575  0.0000  0.0000  0.0000  0.0000  0.0000 </r>
       </set>
       <set comment="band 2">
        <r>  0.2108  0.0450  0.0016  0.0729  0.0000  0.0000  0.0000  0.0000  0.0000 </r>
        <r>  0.2108  0.0450  0.0016  0.0729  0.0000  0.0000  0.0000  0.0000  0.0000 </r>
       </set>
       <set comment="band 3">
        <r>  0.0034  0.1691  0.0001  0.1072  0.0000  0.0000  0.0000  0.0000  0.0000 </r>
        <r>  0.0034  0.1691  0.0001  0.1072  0.0000  0.0000  0.0000  0.0000  0.0000 </r>
       </set>
       <set comment="band 4">
        <r>  0.0088  0.0063  0.2767  0.0126  0.0000  0.0000  0.0000  0.0000  0.0000 </r>
        <r>  0.0088  0.0063  0.2767  0.0126  0.0000  0.0000  0.0000  0.0000  0.0000 </r>
       </set>
       <set comment="band 5">
        <r>  0.0788  0.0272  0.0605  0.0391  0.0000  0.0000  0.0000  0.0000  0.0000 </r>
        <r>  0.0788  0.0272  0.0605  0.0391  0.0000  0.0000  0.0000  0.0000  0.0000 </r>
       </set>
       <set comment="band 6">
        <r>  0.0652  0.0834  0.0113  0.0659  0.0000  0.0000  0.0000  0.0000  0.0000 </r>
        <r>  0.0652  0.0834  0.0113  0.0659  0.0000  0.0000  0.0000  0.0000  0.0000 </r>
       </set>
       <set comment="band 7">
        <r>  0.0401  0.0103  0.2860  0.0203  0.0000  0.0000  0.0000  0.0000  0.0000 </r>
        <r>  0.0401  0.0103  0.2860  0.0203  0.0000  0.0000  0.0000  0.0000  0.0000 </r>
       </set>
       <set comment="band 8">
        <r>  0.0610  0.1889  0.0000  0.1118  0.0000  0.0000  0.0000  0.0000  0.0000 </r>
        <r>  0.0610  0.1889  0.0000  0.1118  0.0000  0.0000  0.0000  0.0000  0.0000 </r>
       </set>
      </set>
      <set comment="kpoint 117">
       <set comment="band 1">
        <r>  0.2362  0.0097  0.0080  0.0630  0.0000  0.0000  0.0000  0.0000  0.0000 </r>
        <r>  0.2362  0.0097  0.0080  0.0630  0.0000  0.0000  0.0000  0.0000  0.0000 </r>
       </set>
       <set comment="band 2">
        <r>  0.1909  0.0309  0.0444  0.0767  0.0000  0.0000  0.0000  0.0000  0.0000 </r>
        <r>  0.1909  0.0309  0.0444  0.0767  0.0000  0.0000  0.0000  0.0000  0.0000 </r>
       </set>
       <set comment="band 3">
        <r>  0.0258  0.0537  0.1178  0.0922  0.0000  0.0000  0.0000  0.0000  0.0000 </r>
        <r>  0.0258  0.0537  0.1178  0.0922  0.0000  0.0000  0.0000  0.0000  0.0000 </r>
       </set>
       <set comment="band 4">
        <r>  0.0071  0.1808  0.0944  0.0220  0.0000  0.0000  0.0000  0.0000  0.0000 </r>
        <r>  0.0071  0.1808  0.0944  0.0220  0.0000  0.0000  0.0000  0.0000  0.0000 </r>
       </set>
       <set comment="band 5">
        <r>  0.0547  0.1272  0.0596  0.0167  0.0000  0.0000  0.0000  0.0000  0.0000 </r>
        <r>  0.0547  0.1272  0.0596  0.0167  0.0000  0.0000  0.0000  0.0000  0.0000 </r>
       </set>
       <set comment="band 6">
        <r>  0.0018  0.0374  0.0894  0.0602  0.0000  0.0000  0.0000  0.0000  0.0000 </r>
        <r>  0.0018  0.0374  0.0894  0.0602  0.0000  0.0000  0.0000  0.0000  0.0000 </r>
       </set>
       <set comment="band 7">
        <r>  0.1553  0.0690  0.0594  0.0499  0.0000  0.0000  0.0000  0.0000  0.0000 </r>
        <r>  0.1553  0.0690  0.0594  0.0499  0.0000  0.0000  0.0000  0.0000  0.0000 </r>
       </set>
       <set comment="band 8">
        <r>  0.0359  0.0892  0.1716  0.0947  0.0000  0.0000  0.0000  0.0000  0.0000 </r>
        <r>  0.0359  0.0892  0.1716  0.0947  0.0000  0.0000  0.0000  0.0000  0.0000 </r>
       </set>
      </set>
      <set comment="kpoint 118">
       <set comment="band 1">
        <r>  0.2465  0.0189  0.0109  0.0550  0.0000  0.0000  0.0000  0.0000  0.0000 </r>
        <r>  0.2465  0.0189  0.0109  0.0550  0.0000  0.0000  0.0000  0.0000  0.0000 </r>
       </set>
       <set comment="band 2">
        <r>  0.1817  0.0254  0.0118  0.1097  0.0000  0.0000  0.0000  0.0000  0.0000 </r>
        <r>  0.1817  0.0254  0.0118  0.1097  0.0000  0.0000  0.0000  0.0000  0.0000 </r>
       </set>
       <set comment="band 3">
        <r>  0.0350  0.1027  0.0885  0.0631  0.0000  0.0000  0.0000  0.0000  0.0000 </r>
        <r>  0.0350  0.1027  0.0885  0.0631  0.0000  0.0000  0.0000  0.0000  0.0000 </r>
       </set>
       <set comment="band 4">
        <r>  0.0040  0.1170  0.1556  0.0206  0.0000  0.0000  0.0000  0.0000  0.0000 </r>
        <r>  0.0040  0.1170  0.1556  0.0206  0.0000  0.0000  0.0000  0.0000  0.0000 </r>
       </set>
       <set comment="band 5">
        <r>  0.0174  0.0822  0.0922  0.0216  0.0000  0.0000  0.0000  0.0000  0.0000 </r>
        <r>  0.0174  0.0822  0.0922  0.0216  0.0000  0.0000  0.0000  0.0000  0.0000 </r>
       </set>
       <set comment="band 6">
        <r>  0.0517  0.0740  0.1210  0.0135  0.0000  0.0000  0.0000  0.0000  0.0000 </r>
        <r>  0.0517  0.0740  0.1210  0.0135  0.0000  0.0000  0.0000  0.0000  0.0000 </r>
       </set>
       <set comment="band 7">
        <r>  0.1209  0.0895  0.0117  0.1015  0.0000  0.0000  0.0000  0.0000  0.0000 </r>
        <r>  0.1209  0.0895  0.0117  0.1015  0.0000  0.0000  0.0000  0.0000  0.0000 </r>
       </set>
       <set comment="band 8">
        <r>  0.0639  0.0571  0.1065  0.1198  0.0000  0.0000  0.0000  0.0000  0.0000 </r>
        <r>  0.0639  0.0571  0.1065  0.1198  0.0000  0.0000  0.0000  0.0000  0.0000 </r>
       </set>
      </set>
      <set comment="kpoint 119">
       <set comment="band 1">
        <r>  0.2338  0.0215  0.0098  0.0665  0.0000  0.0000  0.0000  0.0000  0.0000 </r>
        <r>  0.2338  0.0215  0.0098  0.0665  0.0000  0.0000  0.0000  0.0000  0.0000 </r>
       </set>
       <set comment="band 2">
        <r>  0.2237  0.0360  0.0213  0.0626  0.0000  0.0000  0.0000  0.0000  0.0000 </r>
        <r>  0.2237  0.0360  0.0213  0.0626  0.0000  0.0000  0.0000  0.0000  0.0000 </r>
       </set>
       <set comment="band 3">
        <r>  0.0112  0.0488  0.1187  0.1055  0.0000  0.0000  0.0000  0.0000  0.0000 </r>
        <r>  0.0112  0.0488  0.1187  0.1055  0.0000  0.0000  0.0000  0.0000  0.0000 </r>
       </set>
       <set comment="band 4">
        <r>  0.0001  0.1558  0.1114  0.0184  0.0000  0.0000  0.0000  0.0000  0.0000 </r>
        <r>  0.0001  0.1558  0.1114  0.0184  0.0000  0.0000  0.0000  0.0000  0.0000 </r>
       </set>
       <set comment="band 5">
        <r>  0.0562  0.1119  0.0612  0.0068  0.0000  0.0000  0.0000  0.0000  0.0000 </r>
        <r>  0.0562  0.1119  0.0612  0.0068  0.0000  0.0000  0.0000  0.0000  0.0000 </r>
       </set>
       <set comment="band 6">
        <r>  0.0411  0.0118  0.0673  0.0897  0.0000  0.0000  0.0000  0.0000  0.0000 </r>
        <r>  0.0411  0.0118  0.0673  0.0897  0.0000  0.0000  0.0000  0.0000  0.0000 </r>
       </set>
       <set comment="band 7">
        <r>  0.0948  0.1187  0.0946  0.0272  0.0000  0.0000  0.0000  0.0000  0.0000 </r>
        <r>  0.0948  0.1187  0.0946  0.0272  0.0000  0.0000  0.0000  0.0000  0.0000 </r>
       </set>
       <set comment="band 8">
        <r>  0.0573  0.0512  0.1258  0.1173  0.0000  0.0000  0.0000  0.0000  0.0000 </r>
        <r>  0.0573  0.0512  0.1258  0.1173  0.0000  0.0000  0.0000  0.0000  0.0000 </r>
       </set>
      </set>
      <set comment="kpoint 120">
       <set comment="band 1">
        <r>  0.2460  0.0376  0.0165  0.0408  0.0000  0.0000  0.0000  0.0000  0.0000 </r>
        <r>  0.2460  0.0376  0.0165  0.0408  0.0000  0.0000  0.0000  0.0000  0.0000 </r>
       </set>
       <set comment="band 2">
        <r>  0.2205  0.0470  0.0095  0.0630  0.0000  0.0000  0.0000  0.0000  0.0000 </r>
        <r>  0.2205  0.0470  0.0095  0.0630  0.0000  0.0000  0.0000  0.0000  0.0000 </r>
       </set>
       <set comment="band 3">
        <r>  0.0011  0.1499  0.0022  0.1193  0.0000  0.0000  0.0000  0.0000  0.0000 </r>
        <r>  0.0011  0.1499  0.0022  0.1193  0.0000  0.0000  0.0000  0.0000  0.0000 </r>
       </set>
       <set comment="band 4">
        <r>  0.0044  0.0159  0.2366  0.0315  0.0000  0.0000  0.0000  0.0000  0.0000 </r>
        <r>  0.0044  0.0159  0.2366  0.0315  0.0000  0.0000  0.0000  0.0000  0.0000 </r>
       </set>
       <set comment="band 5">
        <r>  0.0314  0.0483  0.0946  0.0439  0.0000  0.0000  0.0000  0.0000  0.0000 </r>
        <r>  0.0314  0.0483  0.0946  0.0439  0.0000  0.0000  0.0000  0.0000  0.0000 </r>
       </set>
       <set comment="band 6">
        <r>  0.0006  0.0547  0.1390  0.0305  0.0000  0.0000  0.0000  0.0000  0.0000 </r>
        <r>  0.0006  0.0547  0.1390  0.0305  0.0000  0.0000  0.0000  0.0000  0.0000 </r>
       </set>
       <set comment="band 7">
        <r>  0.1116  0.0721  0.0758  0.0886  0.0000  0.0000  0.0000  0.0000  0.0000 </r>
        <r>  0.1116  0.0721  0.0758  0.0886  0.0000  0.0000  0.0000  0.0000  0.0000 </r>
       </set>
       <set comment="band 8">
        <r>  0.1092  0.1208  0.0054  0.0936  0.0000  0.0000  0.0000  0.0000  0.0000 </r>
        <r>  0.1092  0.1208  0.0054  0.0936  0.0000  0.0000  0.0000  0.0000  0.0000 </r>
       </set>
      </set>
     </set>
    </set>
   </array>
  </projected>
 </calculation>
 <structure name="finalpos" >
  <crystal>
   <varray name="basis" >
    <v>       2.18050236       0.00000000       1.25891346 </v>
    <v>       0.72683412       2.05579703       1.25891346 </v>
    <v>       0.00000000       0.00000000       2.51782692 </v>
   </varray>
   <i name="volume">     11.28658789 </i>
   <varray name="rec_basis" >
    <v>       0.45860991      -0.16214311       0.00000000 </v>
    <v>       0.00000000       0.48642934       0.00000000 </v>
    <v>      -0.22930496      -0.16214311       0.39716789 </v>
   </varray>
  </crystal>
  <varray name="positions" >
   <v>       0.87500000       0.87500000       0.87500000 </v>
   <v>       0.12500000       0.12500000       0.12500000 </v>
  </varray>
 </structure>
</modeling>
