    2    2    1    1
  0.5643294E+01  0.2517827E-09  0.2517827E-09  0.2517827E-09  0.5000000E-15
  1.000000000000000E-004
  CAR 
 Diamont Test Results                    
      8      3      8
 
  0.0000000E+00  0.0000000E+00  0.0000000E+00  0.1250000E+00
    1      -11.964165   1.000000
    2        9.305582   1.000000
    3        9.305611   1.000000
    4        9.305612   1.000000
    5       15.365202   0.000000
    6       15.365221   0.000000
    7       15.365224   0.000000
    8       23.157971   0.000000
 
  0.5000000E+00  0.2114441E-16  0.0000000E+00  0.5000000E+00
    1       -6.381646   1.000000
    2       -3.723618   1.000000
    3        6.508035   1.000000
    4        6.508057   1.000000
    5       18.324836   0.000000
    6       18.324860   0.000000
    7       18.646019   0.000000
    8       26.521871   0.000000
 
  0.5000000E+00  0.5000000E+00  0.0000000E+00  0.3750000E+00
    1       -3.372692   1.000000
    2       -3.372692   1.000000
    3        3.143909   1.000000
    4        3.143923   1.000000
    5       14.960878   0.000000
    6       14.960890   0.000000
    7       27.073852   0.000000
    8       27.073879   0.000000
