<?xml version="1.0" encoding="ISO-8859-1"?>
<modeling>
 <generator>
  <i name="program" type="string">vasp </i>
  <i name="version" type="string">5.4.4.18Apr17-6-g9f103f2a35  </i>
  <i name="subversion" type="string">(build Jan 25 2021 16:16:55) complex            parallel </i>
  <i name="platform" type="string">LinuxIFC </i>
  <i name="date" type="string">2026 04 30 </i>
  <i name="time" type="string">12:29:58 </i>
 </generator>
 <incar>
  <i type="string" name="SYSTEM"> r-GeO2 ENCUT convergence test</i>
  <i type="int" name="ISTART">     0</i>
  <i type="string" name="PREC">accurate</i>
  <i type="string" name="ALGO"> Normal</i>
  <i type="int" name="ICHARG">     2</i>
  <i type="int" name="IBRION">    -1</i>
  <i name="EDIFF">      0.00010000</i>
  <i type="int" name="NSW">     0</i>
  <i name="ENCUT">    500.00000000</i>
  <i type="logical" name="LREAL"> F  </i>
  <i type="int" name="ISMEAR">     0</i>
  <i name="SIGMA">      0.05000000</i>
  <i type="logical" name="LWAVE"> F  </i>
  <i type="logical" name="LCHARG"> F  </i>
  <i type="int" name="LORBIT">    11</i>
  <i type="logical" name="LASPH"> T  </i>
  <v type="int" name="KPOINT_BSE">    -1     0     0     0</v>
  <i type="logical" name="LASPH"> T  </i>
 </incar>
 <structure name="primitive_cell" >
  <crystal>
   <varray name="basis" >
    <v>       2.18050236       0.00000000       1.25891346 </v>
    <v>       0.72683412       2.05579703       1.25891346 </v>
    <v>       0.00000000       0.00000000       2.51782692 </v>
   </varray>
   <i name="volume">     11.28658789 </i>
   <varray name="rec_basis" >
    <v>       0.45860991      -0.16214311       0.00000000 </v>
    <v>       0.00000000       0.48642934       0.00000000 </v>
    <v>      -0.22930496      -0.16214311       0.39716789 </v>
   </varray>
  </crystal>
  <varray name="positions" >
   <v>      -0.12500000      -0.12500000      -0.12500000 </v>
   <v>       0.12500000       0.12500000       0.12500000 </v>
  </varray>
 </structure>
 <varray name="primitive_index" >
  <v type="int" >        1 </v>
  <v type="int" >        2 </v>
 </varray>
 <kpoints>
  <generation param="Gamma">
   <v type="int" name="divisions">      15       15       15 </v>
   <v name="usershift">      0.00000000       0.00000000       0.00000000 </v>
   <v name="genvec1">      0.06666667      -0.00000000       0.00000000 </v>
   <v name="genvec2">      0.00000000       0.06666667       0.00000000 </v>
   <v name="genvec3">      0.00000000       0.00000000       0.06666667 </v>
   <v name="shift">      0.00000000       0.00000000       0.00000000 </v>
  </generation>
  <varray name="kpointlist" >
   <v>       0.00000000       0.00000000       0.00000000 </v>
   <v>       0.06666667      -0.00000000       0.00000000 </v>
   <v>       0.13333333      -0.00000000       0.00000000 </v>
   <v>       0.20000000      -0.00000000       0.00000000 </v>
   <v>       0.26666667       0.00000000       0.00000000 </v>
   <v>       0.33333333      -0.00000000       0.00000000 </v>
   <v>       0.40000000      -0.00000000       0.00000000 </v>
   <v>       0.46666667      -0.00000000       0.00000000 </v>
   <v>       0.06666667       0.06666667       0.00000000 </v>
   <v>       0.13333333       0.06666667       0.00000000 </v>
   <v>       0.20000000       0.06666667       0.00000000 </v>
   <v>       0.26666667       0.06666667       0.00000000 </v>
   <v>       0.33333333       0.06666667       0.00000000 </v>
   <v>       0.40000000       0.06666667       0.00000000 </v>
   <v>       0.46666667       0.06666667       0.00000000 </v>
   <v>      -0.46666667       0.06666667       0.00000000 </v>
   <v>      -0.40000000       0.06666667       0.00000000 </v>
   <v>      -0.33333333       0.06666667       0.00000000 </v>
   <v>      -0.26666667       0.06666667       0.00000000 </v>
   <v>      -0.20000000       0.06666667       0.00000000 </v>
   <v>      -0.13333333       0.06666667       0.00000000 </v>
   <v>      -0.06666667       0.06666667       0.00000000 </v>
   <v>       0.13333333       0.13333333       0.00000000 </v>
   <v>       0.20000000       0.13333333       0.00000000 </v>
   <v>       0.26666667       0.13333333       0.00000000 </v>
   <v>       0.33333333       0.13333333       0.00000000 </v>
   <v>       0.40000000       0.13333333       0.00000000 </v>
   <v>       0.46666667       0.13333333       0.00000000 </v>
   <v>      -0.46666667       0.13333333       0.00000000 </v>
   <v>      -0.40000000       0.13333333       0.00000000 </v>
   <v>      -0.33333333       0.13333333       0.00000000 </v>
   <v>      -0.26666667       0.13333333       0.00000000 </v>
   <v>      -0.20000000       0.13333333       0.00000000 </v>
   <v>      -0.13333333       0.13333333       0.00000000 </v>
   <v>       0.20000000       0.20000000       0.00000000 </v>
   <v>       0.26666667       0.20000000       0.00000000 </v>
   <v>       0.33333333       0.20000000       0.00000000 </v>
   <v>       0.40000000       0.20000000       0.00000000 </v>
   <v>       0.46666667       0.20000000       0.00000000 </v>
   <v>      -0.46666667       0.20000000       0.00000000 </v>
   <v>      -0.40000000       0.20000000       0.00000000 </v>
   <v>      -0.33333333       0.20000000       0.00000000 </v>
   <v>      -0.26666667       0.20000000       0.00000000 </v>
   <v>      -0.20000000       0.20000000       0.00000000 </v>
   <v>       0.26666667       0.26666667       0.00000000 </v>
   <v>       0.33333333       0.26666667       0.00000000 </v>
   <v>       0.40000000       0.26666667       0.00000000 </v>
   <v>       0.46666667       0.26666667       0.00000000 </v>
   <v>      -0.46666667       0.26666667       0.00000000 </v>
   <v>      -0.40000000       0.26666667       0.00000000 </v>
   <v>      -0.33333333       0.26666667       0.00000000 </v>
   <v>      -0.26666667       0.26666667       0.00000000 </v>
   <v>       0.33333333       0.33333333       0.00000000 </v>
   <v>       0.40000000       0.33333333       0.00000000 </v>
   <v>       0.46666667       0.33333333       0.00000000 </v>
   <v>      -0.46666667       0.33333333       0.00000000 </v>
   <v>      -0.40000000       0.33333333       0.00000000 </v>
   <v>      -0.33333333       0.33333333       0.00000000 </v>
   <v>       0.40000000       0.40000000       0.00000000 </v>
   <v>       0.46666667       0.40000000       0.00000000 </v>
   <v>      -0.46666667       0.40000000       0.00000000 </v>
   <v>      -0.40000000       0.40000000       0.00000000 </v>
   <v>       0.46666667       0.46666667       0.00000000 </v>
   <v>      -0.46666667       0.46666667       0.00000000 </v>
   <v>       0.20000000       0.13333333       0.06666667 </v>
   <v>       0.26666667       0.13333333       0.06666667 </v>
   <v>       0.33333333       0.13333333       0.06666667 </v>
   <v>       0.40000000       0.13333333       0.06666667 </v>
   <v>       0.46666667       0.13333333       0.06666667 </v>
   <v>      -0.46666667       0.13333333       0.06666667 </v>
   <v>       0.26666667       0.20000000       0.06666667 </v>
   <v>       0.33333333       0.20000000       0.06666667 </v>
   <v>       0.40000000       0.20000000       0.06666667 </v>
   <v>       0.46666667       0.20000000       0.06666667 </v>
   <v>      -0.46666667       0.20000000       0.06666667 </v>
   <v>      -0.40000000       0.20000000       0.06666667 </v>
   <v>      -0.33333333       0.20000000       0.06666667 </v>
   <v>      -0.26666667       0.20000000       0.06666667 </v>
   <v>      -0.20000000       0.20000000       0.06666667 </v>
   <v>      -0.13333333       0.20000000       0.06666667 </v>
   <v>       0.33333333       0.26666667       0.06666667 </v>
   <v>       0.40000000       0.26666667       0.06666667 </v>
   <v>       0.46666667       0.26666667       0.06666667 </v>
   <v>      -0.46666667       0.26666667       0.06666667 </v>
   <v>      -0.40000000       0.26666667       0.06666667 </v>
   <v>      -0.33333333       0.26666667       0.06666667 </v>
   <v>      -0.26666667       0.26666667       0.06666667 </v>
   <v>      -0.20000000       0.26666667       0.06666667 </v>
   <v>       0.40000000       0.33333333       0.06666667 </v>
   <v>       0.46666667       0.33333333       0.06666667 </v>
   <v>      -0.46666667       0.33333333       0.06666667 </v>
   <v>      -0.40000000       0.33333333       0.06666667 </v>
   <v>      -0.33333333       0.33333333       0.06666667 </v>
   <v>      -0.26666667       0.33333333       0.06666667 </v>
   <v>       0.46666667       0.40000000       0.06666667 </v>
   <v>      -0.46666667       0.40000000       0.06666667 </v>
   <v>      -0.40000000       0.40000000       0.06666667 </v>
   <v>      -0.33333333       0.40000000       0.06666667 </v>
   <v>      -0.46666667       0.46666667       0.06666667 </v>
   <v>      -0.40000000       0.46666667       0.06666667 </v>
   <v>       0.40000000       0.26666667       0.13333333 </v>
   <v>       0.46666667       0.26666667       0.13333333 </v>
   <v>      -0.46666667       0.26666667       0.13333333 </v>
   <v>      -0.40000000       0.26666667       0.13333333 </v>
   <v>       0.46666667       0.33333333       0.13333333 </v>
   <v>      -0.46666667       0.33333333       0.13333333 </v>
   <v>      -0.40000000       0.33333333       0.13333333 </v>
   <v>      -0.33333333       0.33333333       0.13333333 </v>
   <v>      -0.26666667       0.33333333       0.13333333 </v>
   <v>      -0.20000000       0.33333333       0.13333333 </v>
   <v>      -0.46666667       0.40000000       0.13333333 </v>
   <v>      -0.40000000       0.40000000       0.13333333 </v>
   <v>      -0.33333333       0.40000000       0.13333333 </v>
   <v>      -0.26666667       0.40000000       0.13333333 </v>
   <v>      -0.40000000       0.46666667       0.13333333 </v>
   <v>      -0.33333333       0.46666667       0.13333333 </v>
   <v>      -0.40000000       0.40000000       0.20000000 </v>
   <v>      -0.33333333       0.40000000       0.20000000 </v>
   <v>      -0.33333333       0.46666667       0.20000000 </v>
   <v>      -0.26666667       0.46666667       0.20000000 </v>
  </varray>
  <varray name="weights" >
   <v>       0.00029630 </v>
   <v>       0.00237037 </v>
   <v>       0.00237037 </v>
   <v>       0.00237037 </v>
   <v>       0.00237037 </v>
   <v>       0.00237037 </v>
   <v>       0.00237037 </v>
   <v>       0.00237037 </v>
   <v>       0.00177778 </v>
   <v>       0.00711111 </v>
   <v>       0.00711111 </v>
   <v>       0.00711111 </v>
   <v>       0.00711111 </v>
   <v>       0.00711111 </v>
   <v>       0.00711111 </v>
   <v>       0.00711111 </v>
   <v>       0.00711111 </v>
   <v>       0.00711111 </v>
   <v>       0.00711111 </v>
   <v>       0.00711111 </v>
   <v>       0.00711111 </v>
   <v>       0.00355556 </v>
   <v>       0.00177778 </v>
   <v>       0.00711111 </v>
   <v>       0.00711111 </v>
   <v>       0.00711111 </v>
   <v>       0.00711111 </v>
   <v>       0.00711111 </v>
   <v>       0.00711111 </v>
   <v>       0.00711111 </v>
   <v>       0.00711111 </v>
   <v>       0.00711111 </v>
   <v>       0.00711111 </v>
   <v>       0.00355556 </v>
   <v>       0.00177778 </v>
   <v>       0.00711111 </v>
   <v>       0.00711111 </v>
   <v>       0.00711111 </v>
   <v>       0.00711111 </v>
   <v>       0.00711111 </v>
   <v>       0.00711111 </v>
   <v>       0.00711111 </v>
   <v>       0.00711111 </v>
   <v>       0.00355556 </v>
   <v>       0.00177778 </v>
   <v>       0.00711111 </v>
   <v>       0.00711111 </v>
   <v>       0.00711111 </v>
   <v>       0.00711111 </v>
   <v>       0.00711111 </v>
   <v>       0.00711111 </v>
   <v>       0.00355556 </v>
   <v>       0.00177778 </v>
   <v>       0.00711111 </v>
   <v>       0.00711111 </v>
   <v>       0.00711111 </v>
   <v>       0.00711111 </v>
   <v>       0.00355556 </v>
   <v>       0.00177778 </v>
   <v>       0.00711111 </v>
   <v>       0.00711111 </v>
   <v>       0.00355556 </v>
   <v>       0.00177778 </v>
   <v>       0.00355556 </v>
   <v>       0.00711111 </v>
   <v>       0.01422222 </v>
   <v>       0.01422222 </v>
   <v>       0.01422222 </v>
   <v>       0.01422222 </v>
   <v>       0.01422222 </v>
   <v>       0.00711111 </v>
   <v>       0.01422222 </v>
   <v>       0.01422222 </v>
   <v>       0.01422222 </v>
   <v>       0.01422222 </v>
   <v>       0.01422222 </v>
   <v>       0.01422222 </v>
   <v>       0.01422222 </v>
   <v>       0.01422222 </v>
   <v>       0.00711111 </v>
   <v>       0.00711111 </v>
   <v>       0.01422222 </v>
   <v>       0.01422222 </v>
   <v>       0.01422222 </v>
   <v>       0.01422222 </v>
   <v>       0.01422222 </v>
   <v>       0.01422222 </v>
   <v>       0.00711111 </v>
   <v>       0.00711111 </v>
   <v>       0.01422222 </v>
   <v>       0.01422222 </v>
   <v>       0.01422222 </v>
   <v>       0.01422222 </v>
   <v>       0.00711111 </v>
   <v>       0.00711111 </v>
   <v>       0.01422222 </v>
   <v>       0.01422222 </v>
   <v>       0.00711111 </v>
   <v>       0.00711111 </v>
   <v>       0.00711111 </v>
   <v>       0.00711111 </v>
   <v>       0.01422222 </v>
   <v>       0.01422222 </v>
   <v>       0.01422222 </v>
   <v>       0.00711111 </v>
   <v>       0.01422222 </v>
   <v>       0.01422222 </v>
   <v>       0.01422222 </v>
   <v>       0.01422222 </v>
   <v>       0.00711111 </v>
   <v>       0.00711111 </v>
   <v>       0.01422222 </v>
   <v>       0.01422222 </v>
   <v>       0.00711111 </v>
   <v>       0.00711111 </v>
   <v>       0.00711111 </v>
   <v>       0.00711111 </v>
   <v>       0.01422222 </v>
   <v>       0.00711111 </v>
   <v>       0.00711111 </v>
  </varray>
 </kpoints>
 <parameters>
  <separator name="general" >
   <i type="string" name="SYSTEM">r-GeO2 ENCUT convergence test</i>
   <i type="logical" name="LCOMPAT"> F  </i>
  </separator>
  <separator name="electronic" >
   <i type="string" name="PREC">accura</i>
   <i name="ENMAX">    500.00000000</i>
   <i name="ENAUG">    644.87300000</i>
   <i name="EDIFF">      0.00010000</i>
   <i type="int" name="IALGO">    38</i>
   <i type="int" name="IWAVPR">    10</i>
   <i type="int" name="NBANDS">     8</i>
   <i name="NELECT">      8.00000000</i>
   <i type="int" name="TURBO">     0</i>
   <i type="int" name="IRESTART">     0</i>
   <i type="int" name="NREBOOT">     0</i>
   <i type="int" name="NMIN">     0</i>
   <i name="EREF">      0.00000000</i>
   <separator name="electronic smearing" >
    <i type="int" name="ISMEAR">     0</i>
    <i name="SIGMA">      0.05000000</i>
    <i name="KSPACING">      0.50000000</i>
    <i type="logical" name="KGAMMA"> T  </i>
   </separator>
   <separator name="electronic projectors" >
    <i type="logical" name="LREAL"> F  </i>
    <v name="ROPT">      0.00000000</v>
    <i type="int" name="LMAXPAW">  -100</i>
    <i type="int" name="LMAXMIX">     2</i>
    <i type="logical" name="NLSPLINE"> F  </i>
   </separator>
   <separator name="electronic startup" >
    <i type="int" name="ISTART">     0</i>
    <i type="int" name="ICHARG">     2</i>
    <i type="int" name="INIWAV">     1</i>
   </separator>
   <separator name="electronic spin" >
    <i type="int" name="ISPIN">     1</i>
    <i type="logical" name="LNONCOLLINEAR"> F  </i>
    <v name="MAGMOM">      1.00000000      1.00000000</v>
    <i name="NUPDOWN">     -1.00000000</i>
    <i type="logical" name="LSORBIT"> F  </i>
    <v name="SAXIS">      0.00000000      0.00000000      1.00000000</v>
    <i type="logical" name="LSPIRAL"> F  </i>
    <v name="QSPIRAL">      0.00000000      0.00000000      0.00000000</v>
    <i type="logical" name="LZEROZ"> F  </i>
   </separator>
   <separator name="electronic exchange-correlation" >
    <i type="logical" name="LASPH"> T  </i>
    <i type="logical" name="LMETAGGA"> F  </i>
   </separator>
   <separator name="electronic convergence" >
    <i type="int" name="NELM">    60</i>
    <i type="int" name="NELMDL">    -5</i>
    <i type="int" name="NELMIN">     2</i>
    <i name="ENINI">    500.00000000</i>
    <separator name="electronic convergence detail" >
     <i type="logical" name="LDIAG"> T  </i>
     <i type="logical" name="LSUBROT"> F  </i>
     <i name="WEIMIN">      0.00000000</i>
     <i name="EBREAK">      0.00000313</i>
     <i name="DEPER">      0.30000000</i>
     <i type="int" name="NRMM">     4</i>
     <i name="TIME">      0.40000000</i>
    </separator>
   </separator>
   <separator name="electronic mixer" >
    <i name="AMIX">      0.40000000</i>
    <i name="BMIX">      1.00000000</i>
    <i name="AMIN">      0.10000000</i>
    <i name="AMIX_MAG">      1.60000000</i>
    <i name="BMIX_MAG">      1.00000000</i>
    <separator name="electronic mixer details" >
     <i type="int" name="IMIX">     4</i>
     <i type="logical" name="MIXFIRST"> F  </i>
     <i type="int" name="MAXMIX">   -45</i>
     <i name="WC">    100.00000000</i>
     <i type="int" name="INIMIX">     1</i>
     <i type="int" name="MIXPRE">     1</i>
     <i type="int" name="MREMOVE">     5</i>
    </separator>
   </separator>
   <separator name="electronic dipolcorrection" >
    <i type="logical" name="LDIPOL"> F  </i>
    <i type="logical" name="LMONO"> F  </i>
    <i type="int" name="IDIPOL">     0</i>
    <i name="EPSILON">      1.00000000</i>
    <v name="DIPOL">   -100.00000000   -100.00000000   -100.00000000</v>
    <i name="EFIELD">      0.00000000</i>
   </separator>
  </separator>
  <separator name="grids" >
   <i type="int" name="NGX">    18</i>
   <i type="int" name="NGY">    18</i>
   <i type="int" name="NGZ">    18</i>
   <i type="int" name="NGXF">    36</i>
   <i type="int" name="NGYF">    36</i>
   <i type="int" name="NGZF">    36</i>
   <i type="logical" name="ADDGRID"> F  </i>
  </separator>
  <separator name="ionic" >
   <i type="int" name="NSW">     0</i>
   <i type="int" name="IBRION">    -1</i>
   <i type="int" name="MDALGO">     0</i>
   <i type="int" name="ISIF">     2</i>
   <i name="PSTRESS">      0.00000000</i>
   <i name="EDIFFG">      0.00100000</i>
   <i type="int" name="NFREE">     0</i>
   <i name="POTIM">      0.50000000</i>
   <i name="SMASS">     -3.00000000</i>
   <i name="SCALEE">      1.00000000</i>
  </separator>
  <separator name="ionic md" >
   <i name="TEBEG">      0.00010000</i>
   <i name="TEEND">      0.00010000</i>
   <i type="int" name="NBLOCK">     1</i>
   <i type="int" name="KBLOCK">     1</i>
   <i type="int" name="NPACO">   256</i>
   <i name="APACO">     16.00000000</i>
  </separator>
  <separator name="symmetry" >
   <i type="int" name="ISYM">     2</i>
   <i name="SYMPREC">      0.00001000</i>
  </separator>
  <separator name="dos" >
   <i type="int" name="LORBIT">    11</i>
   <v name="RWIGS">     -1.00000000</v>
   <i type="int" name="NEDOS">   301</i>
   <i name="EMIN">     10.00000000</i>
   <i name="EMAX">    -10.00000000</i>
   <i name="EFERMI">      0.00000000</i>
  </separator>
  <separator name="writing" >
   <i type="int" name="NWRITE">     2</i>
   <i type="logical" name="LWAVE"> F  </i>
   <i type="logical" name="LDOWNSAMPLE"> F  </i>
   <i type="logical" name="LCHARG"> F  </i>
   <i type="logical" name="LPARD"> F  </i>
   <i type="logical" name="LVTOT"> F  </i>
   <i type="logical" name="LVHAR"> F  </i>
   <i type="logical" name="LELF"> F  </i>
   <i type="logical" name="LOPTICS"> F  </i>
   <v name="STM">      0.00000000      0.00000000      0.00000000      0.00000000      0.00000000      0.00000000      0.00000000</v>
  </separator>
  <separator name="performance" >
   <i type="int" name="NPAR">     2</i>
   <i type="int" name="NSIM">     4</i>
   <i type="int" name="NBLK">    -1</i>
   <i type="logical" name="LPLANE"> T  </i>
   <i type="logical" name="LSCALAPACK"> T  </i>
   <i type="logical" name="LSCAAWARE"> F  </i>
   <i type="logical" name="LSCALU"> F  </i>
   <i type="logical" name="LASYNC"> F  </i>
   <i type="logical" name="LORBITALREAL"> F  </i>
  </separator>
  <separator name="miscellaneous" >
   <i type="int" name="IDIOT">     3</i>
   <i type="int" name="ISPECIAL">     0</i>
   <i type="logical" name="LMUSIC"> F  </i>
   <v name="POMASS">     12.01100000</v>
   <v name="DARWINR">      0.00000000</v>
   <v name="DARWINV">      1.00000000</v>
   <i type="logical" name="LCORR"> T  </i>
  </separator>
  <i type="logical" name="GGA_COMPAT"> T  </i>
  <i type="logical" name="LBERRY"> F  </i>
  <i type="int" name="ICORELEVEL">     0</i>
  <i type="logical" name="LDAU"> F  </i>
  <i type="int" name="I_CONSTRAINED_M">     0</i>
  <separator name="electronic exchange-correlation" >
   <i type="string" name="GGA">--</i>
   <i type="int" name="VOSKOWN">     0</i>
   <i type="logical" name="LHFCALC"> F  </i>
   <i type="string" name="PRECFOCK"></i>
   <i type="logical" name="LSYMGRAD"> F  </i>
   <i type="logical" name="LHFONE"> F  </i>
   <i type="logical" name="LRHFCALC"> F  </i>
   <i type="logical" name="LTHOMAS"> F  </i>
   <i type="logical" name="LMODELHF"> F  </i>
   <i name="ENCUT4O">     -1.00000000</i>
   <i type="int" name="EXXOEP">     0</i>
   <i type="int" name="FOURORBIT">     0</i>
   <i name="AEXX">      0.00000000</i>
   <i name="HFALPHA">      0.00000000</i>
   <i name="MCALPHA">      0.00000000</i>
   <i name="ALDAX">      1.00000000</i>
   <i name="AGGAX">      1.00000000</i>
   <i name="ALDAC">      1.00000000</i>
   <i name="AGGAC">      1.00000000</i>
   <i type="int" name="NKREDX">     1</i>
   <i type="int" name="NKREDY">     1</i>
   <i type="int" name="NKREDZ">     1</i>
   <i type="logical" name="SHIFTRED"> F  </i>
   <i type="logical" name="ODDONLY"> F  </i>
   <i type="logical" name="EVENONLY"> F  </i>
   <i type="int" name="LMAXFOCK">     0</i>
   <i type="int" name="NMAXFOCKAE">     0</i>
   <i type="logical" name="LFOCKAEDFT"> F  </i>
   <i name="HFSCREEN">      0.00000000</i>
   <i name="HFSCREENC">      0.00000000</i>
   <i type="int" name="NBANDSGWLOW">     0</i>
  </separator>
  <separator name="vdW DFT" >
   <i type="logical" name="LUSE_VDW"> F  </i>
   <i name="Zab_VDW">     -0.84910000</i>
   <i name="PARAM1">      0.12340000</i>
   <i name="PARAM2">      1.00000000</i>
   <i name="PARAM3">      0.00000000</i>
  </separator>
  <separator name="model GW" >
   <i type="int" name="MODEL_GW">     0</i>
   <i name="MODEL_EPS0">      3.38597637</i>
   <i name="MODEL_ALPHA">      1.00000000</i>
  </separator>
  <separator name="linear response parameters" >
   <i type="logical" name="LEPSILON"> F  </i>
   <i type="logical" name="LRPA"> F  </i>
   <i type="logical" name="LNABLA"> F  </i>
   <i type="logical" name="LVEL"> F  </i>
   <i type="int" name="KINTER">     0</i>
   <i name="CSHIFT">      0.10000000</i>
   <i name="OMEGAMAX">     -1.00000000</i>
   <i name="DEG_THRESHOLD">      0.00200000</i>
   <i name="RTIME">     -0.10000000</i>
   <i name="WPLASMAI">      0.00000000</i>
   <v name="DFIELD">      0.00000000      0.00000000      0.00000000</v>
   <v name="WPLASMA">      0.00000000      0.00000000      0.00000000      0.00000000      0.00000000      0.00000000      0.00000000      0.00000000      0.00000000</v>
  </separator>
  <separator name="orbital magnetization" >
   <i type="logical" name="NUCIND"> F  </i>
   <v name="MAGPOS">      0.00000000      0.00000000      0.00000000</v>
   <i type="logical" name="LNICSALL"> T  </i>
   <i type="logical" name="ORBITALMAG"> F  </i>
   <i type="logical" name="LMAGBLOCH"> F  </i>
   <i type="logical" name="LCHIMAG"> F  </i>
   <i type="logical" name="LGAUGE"> T  </i>
   <i type="int" name="MAGATOM">     0</i>
   <v name="MAGDIPOL">      0.00000000      0.00000000      0.00000000</v>
   <v name="AVECCONST">      0.00000000      0.00000000      0.00000000</v>
  </separator>
  <separator name="response functions" >
   <i type="logical" name="LADDER"> F  </i>
   <i type="logical" name="LRPAFORCE"> F  </i>
   <i type="logical" name="LFXC"> F  </i>
   <i type="logical" name="LHARTREE"> T  </i>
   <i type="int" name="IBSE">     0</i>
   <v type="int" name="KPOINT">    -1     0     0     0</v>
   <i type="logical" name="LTCTE"> F  </i>
   <i type="logical" name="LTETE"> F  </i>
   <i type="logical" name="LTRIPLET"> F  </i>
   <i type="logical" name="LFXCEPS"> F  </i>
   <i type="logical" name="LFXHEG"> F  </i>
   <i type="int" name="NATURALO">     2</i>
   <i type="logical" name="L2ORDER"> F  </i>
   <i type="logical" name="LMP2LT"> F  </i>
   <i type="logical" name="LUSEW"> F  </i>
   <i name="ENCUTGW">     -2.00000000</i>
   <i name="ENCUTGWSOFT">     -2.00000000</i>
   <i name="ENCUTLF">     -1.00000000</i>
   <i type="int" name="LMAXMP2">    -1</i>
   <i name="SCISSOR">      0.00000000</i>
   <i type="int" name="NOMEGA">     0</i>
   <i type="int" name="NOMEGAR">     0</i>
   <i type="int" name="NBANDSGW">    -1</i>
   <i type="int" name="NBANDSO">    -1</i>
   <i type="int" name="NBANDSV">    -1</i>
   <i type="int" name="NELM">     1</i>
   <i type="int" name="NELMHF">     1</i>
   <i type="int" name="DIM">     3</i>
   <i type="int" name="ANTIRES">     0</i>
   <i name="OMEGAMAX">    -30.00000000</i>
   <i name="OMEGAMIN">    -30.00000000</i>
   <i name="OMEGATL">   -200.00000000</i>
   <i type="int" name="OMEGAGRID">   140</i>
   <i name="CSHIFT">     -0.10000000</i>
   <i type="logical" name="SELFENERGY"> F  </i>
   <i type="logical" name="LSPECTRAL"> F  </i>
   <i type="logical" name="LSPECTRALGW"> F  </i>
   <i type="logical" name="LSINGLES"> F  </i>
   <i type="logical" name="LFERMIGW"> F  </i>
   <i type="logical" name="ODDONLYGW"> F  </i>
   <i type="logical" name="EVENONLYGW"> F  </i>
   <i type="int" name="NKREDLFX">     1</i>
   <i type="int" name="NKREDLFY">     1</i>
   <i type="int" name="NKREDLFZ">     1</i>
   <i type="int" name="MAXMEM">  2800</i>
   <i type="int" name="TELESCOPE">     0</i>
   <i type="int" name="TAUPAR">     1</i>
   <i type="int" name="OMEGAPAR">    -1</i>
   <i name="LAMBDA">      1.00000000</i>
  </separator>
  <separator name="External order field" >
   <i name="OFIELD_KAPPA">      0.00000000</i>
   <v name="OFIELD_K">      0.00000000      0.00000000      0.00000000</v>
   <i name="OFIELD_Q6_NEAR">      0.00000000</i>
   <i name="OFIELD_Q6_FAR">      0.00000000</i>
   <i name="OFIELD_A">      0.00000000</i>
  </separator>
 </parameters>
 <atominfo>
  <atoms>       2 </atoms>
  <types>       1 </types>
  <array name="atoms" >
   <dimension dim="1">ion</dimension>
   <field type="string">element</field>
   <field type="int">atomtype</field>
   <set>
    <rc><c>C </c><c>   1</c></rc>
    <rc><c>C </c><c>   1</c></rc>
   </set>
  </array>
  <array name="atomtypes" >
   <dimension dim="1">type</dimension>
   <field type="int">atomspertype</field>
   <field type="string">element</field>
   <field>mass</field>
   <field>valence</field>
   <field type="string">pseudopotential</field>
   <set>
    <rc><c>   2</c><c>C </c><c>     12.01100000</c><c>      4.00000000</c><c>  PAW_PBE C 08Apr2002                   </c></rc>
   </set>
  </array>
 </atominfo>
 <structure name="initialpos" >
  <crystal>
   <varray name="basis" >
    <v>       2.18050236       0.00000000       1.25891346 </v>
    <v>       0.72683412       2.05579703       1.25891346 </v>
    <v>       0.00000000       0.00000000       2.51782692 </v>
   </varray>
   <i name="volume">     11.28658789 </i>
   <varray name="rec_basis" >
    <v>       0.45860991      -0.16214311       0.00000000 </v>
    <v>       0.00000000       0.48642934       0.00000000 </v>
    <v>      -0.22930496      -0.16214311       0.39716789 </v>
   </varray>
  </crystal>
  <varray name="positions" >
   <v>       0.87500000       0.87500000       0.87500000 </v>
   <v>       0.12500000       0.12500000       0.12500000 </v>
  </varray>
 </structure>
 <calculation>
  <scstep>
   <time name="dav">    0.18    0.18</time>
   <time name="total">    0.21    0.21</time>
   <energy>
    <i name="alphaZ">     10.30981135 </i>
    <i name="ewald">   -348.55062700 </i>
    <i name="hartreedc">    -17.50286058 </i>
    <i name="XCdc">     27.43730065 </i>
    <i name="pawpsdc">    217.04409276 </i>
    <i name="pawaedc">   -218.18290438 </i>
    <i name="eentropy">     -0.00004479 </i>
    <i name="bandstr">      4.15599946 </i>
    <i name="atom">    294.29684335 </i>
    <i name="e_fr_energy">    -30.99238918 </i>
    <i name="e_wo_entrp">    -30.99234439 </i>
    <i name="e_0_energy">    -30.99236678 </i>
   </energy>
  </scstep>
  <scstep>
   <time name="dav">    0.26    0.26</time>
   <time name="total">    0.26    0.26</time>
   <energy>
    <i name="e_fr_energy">    -44.99064538 </i>
    <i name="e_wo_entrp">    -44.99064538 </i>
    <i name="e_0_energy">    -44.99064538 </i>
   </energy>
  </scstep>
  <scstep>
   <time name="dav">    0.17    0.17</time>
   <time name="total">    0.17    0.17</time>
   <energy>
    <i name="e_fr_energy">    -45.06674262 </i>
    <i name="e_wo_entrp">    -45.06674262 </i>
    <i name="e_0_energy">    -45.06674262 </i>
   </energy>
  </scstep>
  <scstep>
   <time name="dav">    0.22    0.22</time>
   <time name="total">    0.22    0.22</time>
   <energy>
    <i name="e_fr_energy">    -45.06686782 </i>
    <i name="e_wo_entrp">    -45.06686782 </i>
    <i name="e_0_energy">    -45.06686782 </i>
   </energy>
  </scstep>
  <scstep>
   <time name="dav">    0.16    0.16</time>
   <time name="total">    0.17    0.17</time>
   <energy>
    <i name="e_fr_energy">    -45.06686788 </i>
    <i name="e_wo_entrp">    -45.06686788 </i>
    <i name="e_0_energy">    -45.06686788 </i>
   </energy>
  </scstep>
  <scstep>
   <time name="dav">    0.17    0.17</time>
   <time name="total">    0.21    0.21</time>
   <energy>
    <i name="e_fr_energy">    -44.36699049 </i>
    <i name="e_wo_entrp">    -44.36699049 </i>
    <i name="e_0_energy">    -44.36699049 </i>
   </energy>
  </scstep>
  <scstep>
   <time name="dav">    0.19    0.19</time>
   <time name="total">    0.24    0.24</time>
   <energy>
    <i name="e_fr_energy">    -44.12794140 </i>
    <i name="e_wo_entrp">    -44.12794140 </i>
    <i name="e_0_energy">    -44.12794140 </i>
   </energy>
  </scstep>
  <scstep>
   <time name="dav">    0.17    0.17</time>
   <time name="total">    0.22    0.22</time>
   <energy>
    <i name="e_fr_energy">    -44.13087929 </i>
    <i name="e_wo_entrp">    -44.13087929 </i>
    <i name="e_0_energy">    -44.13087929 </i>
   </energy>
  </scstep>
  <scstep>
   <time name="dav">    0.22    0.22</time>
   <time name="total">    0.25    0.25</time>
   <energy>
    <i name="alphaZ">     10.30981135 </i>
    <i name="ewald">   -348.55062700 </i>
    <i name="hartreedc">    -28.65958399 </i>
    <i name="XCdc">     28.46281259 </i>
    <i name="pawpsdc">    841.26934572 </i>
    <i name="pawaedc">   -842.62567069 </i>
    <i name="eentropy">     -0.00000000 </i>
    <i name="bandstr">      1.36615180 </i>
    <i name="atom">    294.29684335 </i>
    <i name="e_fr_energy">    -44.13091687 </i>
    <i name="e_wo_entrp">    -44.13091687 </i>
    <i name="e_0_energy">    -44.13091687 </i>
   </energy>
  </scstep>
  <structure>
   <crystal>
    <varray name="basis" >
     <v>       2.18050236       0.00000000       1.25891346 </v>
     <v>       0.72683412       2.05579703       1.25891346 </v>
     <v>       0.00000000       0.00000000       2.51782692 </v>
    </varray>
    <i name="volume">     11.28658789 </i>
    <varray name="rec_basis" >
     <v>       0.45860991      -0.16214311       0.00000000 </v>
     <v>       0.00000000       0.48642934       0.00000000 </v>
     <v>      -0.22930496      -0.16214311       0.39716789 </v>
    </varray>
   </crystal>
   <varray name="positions" >
    <v>       0.87500000       0.87500000       0.87500000 </v>
    <v>       0.12500000       0.12500000       0.12500000 </v>
   </varray>
  </structure>
  <varray name="forces" >
   <v>      -0.00000000       0.00000000      -0.00000000 </v>
   <v>       0.00000000      -0.00000000       0.00000000 </v>
  </varray>
  <varray name="stress" >
   <v>   -2179.27076579       0.00000000      -0.00000000 </v>
   <v>       0.00000000   -2179.27010813      -0.00000000 </v>
   <v>      -0.00000000      -0.00000000   -2179.27019622 </v>
  </varray>
  <energy>
   <i name="e_fr_energy">    -44.13091687 </i>
   <i name="e_wo_entrp">    -44.13091687 </i>
   <i name="e_0_energy">     -0.00000000 </i>
  </energy>
  <time name="totalsc">    2.07    2.07</time>
  <eigenvalues>
   <array>
    <dimension dim="1">band</dimension>
    <dimension dim="2">kpoint</dimension>
    <dimension dim="3">spin</dimension>
    <field>eigene</field>
    <field>occ</field>
    <set>
     <set comment="spin 1">
      <set comment="kpoint 1">
       <r>  -12.1594    1.0000 </r>
       <r>    8.8942    1.0000 </r>
       <r>    8.8942    1.0000 </r>
       <r>    8.8942    1.0000 </r>
       <r>   14.9990    0.0000 </r>
       <r>   14.9990    0.0000 </r>
       <r>   14.9990    0.0000 </r>
       <r>   22.8745    0.0000 </r>
      </set>
      <set comment="kpoint 2">
       <r>  -12.0383    1.0000 </r>
       <r>    8.1262    1.0000 </r>
       <r>    8.6957    1.0000 </r>
       <r>    8.6957    1.0000 </r>
       <r>   15.2655    0.0000 </r>
       <r>   15.2655    0.0000 </r>
       <r>   15.4699    0.0000 </r>
       <r>   22.9849    0.0000 </r>
      </set>
      <set comment="kpoint 3">
       <r>  -11.6757    1.0000 </r>
       <r>    6.3617    1.0000 </r>
       <r>    8.2116    1.0000 </r>
       <r>    8.2116    1.0000 </r>
       <r>   15.9210    0.0000 </r>
       <r>   15.9210    0.0000 </r>
       <r>   16.3703    0.0000 </r>
       <r>   23.3142    0.0000 </r>
      </set>
      <set comment="kpoint 4">
       <r>  -11.0755    1.0000 </r>
       <r>    4.2276    1.0000 </r>
       <r>    7.6338    1.0000 </r>
       <r>    7.6338    1.0000 </r>
       <r>   16.6867    0.0000 </r>
       <r>   16.6867    0.0000 </r>
       <r>   17.1621    0.0000 </r>
       <r>   23.8359    0.0000 </r>
      </set>
      <set comment="kpoint 5">
       <r>  -10.2455    1.0000 </r>
       <r>    2.0113    1.0000 </r>
       <r>    7.0917    1.0000 </r>
       <r>    7.0917    1.0000 </r>
       <r>   17.3298    0.0000 </r>
       <r>   17.3298    0.0000 </r>
       <r>   17.7150    0.0000 </r>
       <r>   24.4684    0.0000 </r>
      </set>
      <set comment="kpoint 6">
       <r>   -9.2029    1.0000 </r>
       <r>   -0.1422    1.0000 </r>
       <r>    6.6522    1.0000 </r>
       <r>    6.6522    1.0000 </r>
       <r>   17.7355    0.0000 </r>
       <r>   17.7355    0.0000 </r>
       <r>   18.0627    0.0000 </r>
       <r>   25.0800    0.0000 </r>
      </set>
      <set comment="kpoint 7">
       <r>   -7.9960    1.0000 </r>
       <r>   -2.1182    1.0000 </r>
       <r>    6.3474    1.0000 </r>
       <r>    6.3474    1.0000 </r>
       <r>   17.9260    0.0000 </r>
       <r>   17.9260    0.0000 </r>
       <r>   18.2628    0.0000 </r>
       <r>   25.5317    0.0000 </r>
      </set>
      <set comment="kpoint 8">
       <r>   -6.8492    1.0000 </r>
       <r>   -3.6572    1.0000 </r>
       <r>    6.1922    1.0000 </r>
       <r>    6.1922    1.0000 </r>
       <r>   17.9882    0.0000 </r>
       <r>   17.9882    0.0000 </r>
       <r>   18.3543    0.0000 </r>
       <r>   25.7607    0.0000 </r>
      </set>
      <set comment="kpoint 9">
       <r>  -11.9979    1.0000 </r>
       <r>    8.3246    1.0000 </r>
       <r>    8.3246    1.0000 </r>
       <r>    8.5014    1.0000 </r>
       <r>   14.8978    0.0000 </r>
       <r>   15.7168    0.0000 </r>
       <r>   15.7168    0.0000 </r>
       <r>   22.9861    0.0000 </r>
      </set>
      <set comment="kpoint 10">
       <r>  -11.7159    1.0000 </r>
       <r>    6.9499    1.0000 </r>
       <r>    7.7475    1.0000 </r>
       <r>    8.3002    1.0000 </r>
       <r>   15.0935    0.0000 </r>
       <r>   16.4897    0.0000 </r>
       <r>   16.5472    0.0000 </r>
       <r>   23.1348    0.0000 </r>
      </set>
      <set comment="kpoint 11">
       <r>  -11.1948    1.0000 </r>
       <r>    4.9592    1.0000 </r>
       <r>    7.1427    1.0000 </r>
       <r>    7.8534    1.0000 </r>
       <r>   15.7133    0.0000 </r>
       <r>   17.3241    0.0000 </r>
       <r>   17.3842    0.0000 </r>
       <r>   23.4201    0.0000 </r>
      </set>
      <set comment="kpoint 12">
       <r>  -10.4411    1.0000 </r>
       <r>    2.7894    1.0000 </r>
       <r>    6.6175    1.0000 </r>
       <r>    7.2834    1.0000 </r>
       <r>   16.4459    0.0000 </r>
       <r>   18.0017    0.0000 </r>
       <r>   18.0023    0.0000 </r>
       <r>   23.8367    0.0000 </r>
      </set>
      <set comment="kpoint 13">
       <r>   -9.4680    1.0000 </r>
       <r>    0.6265    1.0000 </r>
       <r>    6.2263    1.0000 </r>
       <r>    6.7236    1.0000 </r>
       <r>   17.0492    0.0000 </r>
       <r>   18.3991    0.0000 </r>
       <r>   18.4002    0.0000 </r>
       <r>   24.3924    0.0000 </r>
      </set>
      <set comment="kpoint 14">
       <r>   -8.3083    1.0000 </r>
       <r>   -1.4083    1.0000 </r>
       <r>    5.9941    1.0000 </r>
       <r>    6.2474    1.0000 </r>
       <r>   17.4466    0.0000 </r>
       <r>   18.5215    0.0000 </r>
       <r>   18.6334    0.0000 </r>
       <r>   25.0153    0.0000 </r>
      </set>
      <set comment="kpoint 15">
       <r>   -7.0879    1.0000 </r>
       <r>   -3.1423    1.0000 </r>
       <r>    5.8941    1.0000 </r>
       <r>    5.9293    1.0000 </r>
       <r>   17.6985    0.0000 </r>
       <r>   18.4597    0.0000 </r>
       <r>   18.7488    0.0000 </r>
       <r>   25.5124    0.0000 </r>
      </set>
      <set comment="kpoint 16">
       <r>   -6.5450    1.0000 </r>
       <r>   -3.8147    1.0000 </r>
       <r>    5.6868    1.0000 </r>
       <r>    6.0306    1.0000 </r>
       <r>   17.8883    0.0000 </r>
       <r>   18.3024    0.0000 </r>
       <r>   18.7712    0.0000 </r>
       <r>   25.6898    0.0000 </r>
      </set>
      <set comment="kpoint 17">
       <r>   -7.4823    1.0000 </r>
       <r>   -2.6173    1.0000 </r>
       <r>    5.6391    1.0000 </r>
       <r>    6.2891    1.0000 </r>
       <r>   18.0410    0.0000 </r>
       <r>   18.0795    0.0000 </r>
       <r>   18.7048    0.0000 </r>
       <r>   25.4891    0.0000 </r>
      </set>
      <set comment="kpoint 18">
       <r>   -8.7120    1.0000 </r>
       <r>   -0.7487    1.0000 </r>
       <r>    5.7582    1.0000 </r>
       <r>    6.6884    1.0000 </r>
       <r>   17.7542    0.0000 </r>
       <r>   18.1050    0.0000 </r>
       <r>   18.5278    0.0000 </r>
       <r>   24.9877    0.0000 </r>
      </set>
      <set comment="kpoint 19">
       <r>   -9.8157    1.0000 </r>
       <r>    1.3427    1.0000 </r>
       <r>    6.0436    1.0000 </r>
       <r>    7.2007    1.0000 </r>
       <r>   17.2602    0.0000 </r>
       <r>   17.9866    0.0000 </r>
       <r>   18.1799    0.0000 </r>
       <r>   24.3780    0.0000 </r>
      </set>
      <set comment="kpoint 20">
       <r>  -10.7178    1.0000 </r>
       <r>    3.5223    1.0000 </r>
       <r>    6.4849    1.0000 </r>
       <r>    7.7768    1.0000 </r>
       <r>   16.5872    0.0000 </r>
       <r>   17.5456    0.0000 </r>
       <r>   17.6566    0.0000 </r>
       <r>   23.8354    0.0000 </r>
      </set>
      <set comment="kpoint 21">
       <r>  -11.3948    1.0000 </r>
       <r>    5.6494    1.0000 </r>
       <r>    7.0579    1.0000 </r>
       <r>    8.3257    1.0000 </r>
       <r>   15.8594    0.0000 </r>
       <r>   16.7330    0.0000 </r>
       <r>   17.0121    0.0000 </r>
       <r>   23.4192    0.0000 </r>
      </set>
      <set comment="kpoint 22">
       <r>  -11.8366    1.0000 </r>
       <r>    7.3930    1.0000 </r>
       <r>    7.7911    1.0000 </r>
       <r>    8.6903    1.0000 </r>
       <r>   15.3312    0.0000 </r>
       <r>   15.8818    0.0000 </r>
       <r>   16.1678    0.0000 </r>
       <r>   23.1320    0.0000 </r>
      </set>
      <set comment="kpoint 23">
       <r>  -11.5147    1.0000 </r>
       <r>    7.1177    1.0000 </r>
       <r>    7.1177    1.0000 </r>
       <r>    7.4192    1.0000 </r>
       <r>   14.6375    0.0000 </r>
       <r>   17.3606    0.0000 </r>
       <r>   17.3606    0.0000 </r>
       <r>   22.8957    0.0000 </r>
      </set>
      <set comment="kpoint 24">
       <r>  -11.0742    1.0000 </r>
       <r>    5.5687    1.0000 </r>
       <r>    6.4876    1.0000 </r>
       <r>    7.1534    1.0000 </r>
       <r>   14.7955    0.0000 </r>
       <r>   18.2755    0.0000 </r>
       <r>   18.2915    0.0000 </r>
       <r>   22.6393    0.0000 </r>
      </set>
      <set comment="kpoint 25">
       <r>  -10.3995    1.0000 </r>
       <r>    3.5746    1.0000 </r>
       <r>    5.9566    1.0000 </r>
       <r>    6.6835    1.0000 </r>
       <r>   15.4064    0.0000 </r>
       <r>   18.9966    0.0000 </r>
       <r>   19.0683    0.0000 </r>
       <r>   22.5080    0.0000 </r>
      </set>
      <set comment="kpoint 26">
       <r>   -9.5012    1.0000 </r>
       <r>    1.4878    1.0000 </r>
       <r>    5.5770    1.0000 </r>
       <r>    6.0760    1.0000 </r>
       <r>   16.1167    0.0000 </r>
       <r>   19.4721    0.0000 </r>
       <r>   19.5449    0.0000 </r>
       <r>   22.7283    0.0000 </r>
      </set>
      <set comment="kpoint 27">
       <r>   -8.4031    1.0000 </r>
       <r>   -0.5421    1.0000 </r>
       <r>    5.3736    1.0000 </r>
       <r>    5.4716    1.0000 </r>
       <r>   16.6706    0.0000 </r>
       <r>   19.6914    0.0000 </r>
       <r>   19.7541    0.0000 </r>
       <r>   23.4223    0.0000 </r>
      </set>
      <set comment="kpoint 28">
       <r>   -7.1822    1.0000 </r>
       <r>   -2.3696    1.0000 </r>
       <r>    4.9522    1.0000 </r>
       <r>    5.3546    1.0000 </r>
       <r>   17.0481    0.0000 </r>
       <r>   19.5820    0.0000 </r>
       <r>   19.8993    0.0000 </r>
       <r>   24.4141    0.0000 </r>
      </set>
      <set comment="kpoint 29">
       <r>   -6.2575    1.0000 </r>
       <r>   -3.5390    1.0000 </r>
       <r>    4.5651    1.0000 </r>
       <r>    5.5169    1.0000 </r>
       <r>   17.3559    0.0000 </r>
       <r>   19.3151    0.0000 </r>
       <r>   19.9466    0.0000 </r>
       <r>   25.2331    0.0000 </r>
      </set>
      <set comment="kpoint 30">
       <r>   -6.7973    1.0000 </r>
       <r>   -2.8690    1.0000 </r>
       <r>    4.3395    1.0000 </r>
       <r>    5.8475    1.0000 </r>
       <r>   17.6620    0.0000 </r>
       <r>   18.9442    0.0000 </r>
       <r>   19.9070    0.0000 </r>
       <r>   25.3339    0.0000 </r>
      </set>
      <set comment="kpoint 31">
       <r>   -8.0067    1.0000 </r>
       <r>   -1.1612    1.0000 </r>
       <r>    4.2937    1.0000 </r>
       <r>    6.3221    1.0000 </r>
       <r>   17.9463    0.0000 </r>
       <r>   18.4592    0.0000 </r>
       <r>   19.7525    0.0000 </r>
       <r>   24.7364    0.0000 </r>
      </set>
      <set comment="kpoint 32">
       <r>   -9.1583    1.0000 </r>
       <r>    0.8272    1.0000 </r>
       <r>    4.4405    1.0000 </r>
       <r>    6.9003    1.0000 </r>
       <r>   17.8226    0.0000 </r>
       <r>   18.1147    0.0000 </r>
       <r>   19.3854    0.0000 </r>
       <r>   24.0092    0.0000 </r>
      </set>
      <set comment="kpoint 33">
       <r>  -10.1259    1.0000 </r>
       <r>    2.8937    1.0000 </r>
       <r>    4.8002    1.0000 </r>
       <r>    7.5137    1.0000 </r>
       <r>   17.0557    0.0000 </r>
       <r>   18.0507    0.0000 </r>
       <r>   18.6819    0.0000 </r>
       <r>   23.5806    0.0000 </r>
      </set>
      <set comment="kpoint 34">
       <r>  -10.8760    1.0000 </r>
       <r>    4.7045    1.0000 </r>
       <r>    5.5538    1.0000 </r>
       <r>    8.0459    1.0000 </r>
       <r>   16.3123    0.0000 </r>
       <r>   17.6797    0.0000 </r>
       <r>   17.7083    0.0000 </r>
       <r>   23.4620    0.0000 </r>
      </set>
      <set comment="kpoint 35">
       <r>  -10.7149    1.0000 </r>
       <r>    5.8323    1.0000 </r>
       <r>    5.8323    1.0000 </r>
       <r>    5.8413    1.0000 </r>
       <r>   14.3184    0.0000 </r>
       <r>   19.3500    0.0000 </r>
       <r>   19.3500    0.0000 </r>
       <r>   21.7300    0.0000 </r>
      </set>
      <set comment="kpoint 36">
       <r>  -10.1208    1.0000 </r>
       <r>    4.1566    1.0000 </r>
       <r>    5.2788    1.0000 </r>
       <r>    5.6284    1.0000 </r>
       <r>   14.4915    0.0000 </r>
       <r>   20.2525    0.0000 </r>
       <r>   20.2825    0.0000 </r>
       <r>   21.0089    0.0000 </r>
      </set>
      <set comment="kpoint 37">
       <r>   -9.3007    1.0000 </r>
       <r>    2.2850    1.0000 </r>
       <r>    4.8826    1.0000 </r>
       <r>    5.0656    1.0000 </r>
       <r>   15.1209    0.0000 </r>
       <r>   20.6487    0.0000 </r>
       <r>   20.9172    0.0000 </r>
       <r>   20.9770    0.0000 </r>
      </set>
      <set comment="kpoint 38">
       <r>   -8.2731    1.0000 </r>
       <r>    0.3687    1.0000 </r>
       <r>    4.3722    1.0000 </r>
       <r>    4.6715    1.0000 </r>
       <r>   15.7902    0.0000 </r>
       <r>   21.0191    0.0000 </r>
       <r>   21.1772    0.0000 </r>
       <r>   21.4181    0.0000 </r>
      </set>
      <set comment="kpoint 39">
       <r>   -7.0889    1.0000 </r>
       <r>   -1.4493    1.0000 </r>
       <r>    3.7076    1.0000 </r>
       <r>    4.6559    1.0000 </r>
       <r>   16.2693    0.0000 </r>
       <r>   21.1030    0.0000 </r>
       <r>   21.4008    0.0000 </r>
       <r>   22.3794    0.0000 </r>
      </set>
      <set comment="kpoint 40">
       <r>   -5.9775    1.0000 </r>
       <r>   -2.8819    1.0000 </r>
       <r>    3.1598    1.0000 </r>
       <r>    4.8340    1.0000 </r>
       <r>   16.6392    0.0000 </r>
       <r>   20.7863    0.0000 </r>
       <r>   21.5064    0.0000 </r>
       <r>   23.8425    0.0000 </r>
      </set>
      <set comment="kpoint 41">
       <r>   -5.9940    1.0000 </r>
       <r>   -2.8465    1.0000 </r>
       <r>    2.7778    1.0000 </r>
       <r>    5.1926    1.0000 </r>
       <r>   17.0246    0.0000 </r>
       <r>   20.2953    0.0000 </r>
       <r>   21.5030    0.0000 </r>
       <r>   24.8920    0.0000 </r>
      </set>
      <set comment="kpoint 42">
       <r>   -7.1080    1.0000 </r>
       <r>   -1.3753    1.0000 </r>
       <r>    2.5946    1.0000 </r>
       <r>    5.7049    1.0000 </r>
       <r>   17.4519    0.0000 </r>
       <r>   19.6418    0.0000 </r>
       <r>   21.3726    0.0000 </r>
       <r>   24.5591    0.0000 </r>
      </set>
      <set comment="kpoint 43">
       <r>   -8.2865    1.0000 </r>
       <r>    0.4471    1.0000 </r>
       <r>    2.6555    1.0000 </r>
       <r>    6.3240    1.0000 </r>
       <r>   17.8561    0.0000 </r>
       <r>   18.8181    0.0000 </r>
       <r>   20.9286    0.0000 </r>
       <r>   23.7216    0.0000 </r>
      </set>
      <set comment="kpoint 44">
       <r>   -9.3093    1.0000 </r>
       <r>    2.0958    1.0000 </r>
       <r>    3.2180    1.0000 </r>
       <r>    6.9705    1.0000 </r>
       <r>   17.8911    0.0000 </r>
       <r>   18.1031    0.0000 </r>
       <r>   19.9388    0.0000 </r>
       <r>   23.4086    0.0000 </r>
      </set>
      <set comment="kpoint 45">
       <r>   -9.6079    1.0000 </r>
       <r>    3.9338    1.0000 </r>
       <r>    4.6944    1.0000 </r>
       <r>    4.6944    1.0000 </r>
       <r>   14.0512    0.0000 </r>
       <r>   19.7611    0.0000 </r>
       <r>   21.4176    0.0000 </r>
       <r>   21.4176    0.0000 </r>
      </set>
      <set comment="kpoint 46">
       <r>   -8.8681    1.0000 </r>
       <r>    2.5798    1.0000 </r>
       <r>    4.1753    1.0000 </r>
       <r>    4.2651    1.0000 </r>
       <r>   14.2842    0.0000 </r>
       <r>   19.0158    0.0000 </r>
       <r>   22.2721    0.0000 </r>
       <r>   22.2763    0.0000 </r>
      </set>
      <set comment="kpoint 47">
       <r>   -7.9164    1.0000 </r>
       <r>    0.9995    1.0000 </r>
       <r>    3.3997    1.0000 </r>
       <r>    4.0235    1.0000 </r>
       <r>   14.9380    0.0000 </r>
       <r>   18.9789    0.0000 </r>
       <r>   22.7241    0.0000 </r>
       <r>   22.8152    0.0000 </r>
      </set>
      <set comment="kpoint 48">
       <r>   -6.7890    1.0000 </r>
       <r>   -0.6182    1.0000 </r>
       <r>    2.5508    1.0000 </r>
       <r>    3.9832    1.0000 </r>
       <r>   15.5250    0.0000 </r>
       <r>   19.8610    0.0000 </r>
       <r>   22.7589    0.0000 </r>
       <r>   23.1131    0.0000 </r>
      </set>
      <set comment="kpoint 49">
       <r>   -5.6191    1.0000 </r>
       <r>   -2.0731    1.0000 </r>
       <r>    1.8067    1.0000 </r>
       <r>    4.1451    1.0000 </r>
       <r>   15.9349    0.0000 </r>
       <r>   21.4626    0.0000 </r>
       <r>   22.4446    0.0000 </r>
       <r>   23.2913    0.0000 </r>
      </set>
      <set comment="kpoint 50">
       <r>   -5.1491    1.0000 </r>
       <r>   -2.5756    1.0000 </r>
       <r>    1.2564    1.0000 </r>
       <r>    4.4978    1.0000 </r>
       <r>   16.3413    0.0000 </r>
       <r>   21.8523    0.0000 </r>
       <r>   22.8863    0.0000 </r>
       <r>   23.7818    0.0000 </r>
      </set>
      <set comment="kpoint 51">
       <r>   -6.0570    1.0000 </r>
       <r>   -1.4579    1.0000 </r>
       <r>    0.9710    1.0000 </r>
       <r>    5.0156    1.0000 </r>
       <r>   16.8286    0.0000 </r>
       <r>   21.0131    0.0000 </r>
       <r>   23.0506    0.0000 </r>
       <r>   24.3676    0.0000 </r>
      </set>
      <set comment="kpoint 52">
       <r>   -7.2273    1.0000 </r>
       <r>   -0.1135    1.0000 </r>
       <r>    1.2381    1.0000 </r>
       <r>    5.6514    1.0000 </r>
       <r>   17.3702    0.0000 </r>
       <r>   19.9606    0.0000 </r>
       <r>   22.4528    0.0000 </r>
       <r>   23.7264    0.0000 </r>
      </set>
      <set comment="kpoint 53">
       <r>   -8.2093    1.0000 </r>
       <r>    1.8229    1.0000 </r>
       <r>    3.7951    1.0000 </r>
       <r>    3.7951    1.0000 </r>
       <r>   13.9297    0.0000 </r>
       <r>   17.8321    0.0000 </r>
       <r>   23.3861    0.0000 </r>
       <r>   23.3861    0.0000 </r>
      </set>
      <set comment="kpoint 54">
       <r>   -7.3364    1.0000 </r>
       <r>    0.6474    1.0000 </r>
       <r>    3.1837    1.0000 </r>
       <r>    3.5107    1.0000 </r>
       <r>   14.2554    0.0000 </r>
       <r>   17.2915    0.0000 </r>
       <r>   24.0857    0.0000 </r>
       <r>   24.1251    0.0000 </r>
      </set>
      <set comment="kpoint 55">
       <r>   -6.2768    1.0000 </r>
       <r>   -0.5672    1.0000 </r>
       <r>    2.1843    1.0000 </r>
       <r>    3.4297    1.0000 </r>
       <r>   14.9013    0.0000 </r>
       <r>   17.6380    0.0000 </r>
       <r>   24.2906    0.0000 </r>
       <r>   24.5273    0.0000 </r>
      </set>
      <set comment="kpoint 56">
       <r>   -5.1147    1.0000 </r>
       <r>   -1.7244    1.0000 </r>
       <r>    1.1174    1.0000 </r>
       <r>    3.5559    1.0000 </r>
       <r>   15.3567    0.0000 </r>
       <r>   19.0535    0.0000 </r>
       <r>   24.0225    0.0000 </r>
       <r>   24.6980    0.0000 </r>
      </set>
      <set comment="kpoint 57">
       <r>   -4.3291    1.0000 </r>
       <r>   -2.4122    1.0000 </r>
       <r>    0.2861    1.0000 </r>
       <r>    3.8809    1.0000 </r>
       <r>   15.7459    0.0000 </r>
       <r>   21.0847    0.0000 </r>
       <r>   23.3434    0.0000 </r>
       <r>   24.7231    0.0000 </r>
      </set>
      <set comment="kpoint 58">
       <r>   -4.9590    1.0000 </r>
       <r>   -1.8170    1.0000 </r>
       <r>    0.0343    1.0000 </r>
       <r>    4.3820    1.0000 </r>
       <r>   16.2335    0.0000 </r>
       <r>   22.3086    0.0000 </r>
       <r>   23.0602    0.0000 </r>
       <r>   24.5234    0.0000 </r>
      </set>
      <set comment="kpoint 59">
       <r>   -6.5426    1.0000 </r>
       <r>   -0.3787    1.0000 </r>
       <r>    3.1780    1.0000 </r>
       <r>    3.1780    1.0000 </r>
       <r>   14.0301    0.0000 </r>
       <r>   16.2756    0.0000 </r>
       <r>   25.0435    0.0000 </r>
       <r>   25.0435    0.0000 </r>
      </set>
      <set comment="kpoint 60">
       <r>   -5.5566    1.0000 </r>
       <r>   -1.4696    1.0000 </r>
       <r>    2.6345    1.0000 </r>
       <r>    3.0477    1.0000 </r>
       <r>   14.4637    0.0000 </r>
       <r>   15.9920    0.0000 </r>
       <r>   25.4494    0.0000 </r>
       <r>   25.5332    0.0000 </r>
      </set>
      <set comment="kpoint 61">
       <r>   -4.4353    1.0000 </r>
       <r>   -2.4589    1.0000 </r>
       <r>    1.6335    1.0000 </r>
       <r>    3.1272    1.0000 </r>
       <r>   14.9701    0.0000 </r>
       <r>   16.8656    0.0000 </r>
       <r>   25.2674    0.0000 </r>
       <r>   25.6582    0.0000 </r>
      </set>
      <set comment="kpoint 62">
       <r>   -3.6596    1.0000 </r>
       <r>   -2.9695    1.0000 </r>
       <r>    0.6073    1.0000 </r>
       <r>    3.4113    1.0000 </r>
       <r>   15.2999    0.0000 </r>
       <r>   18.7806    0.0000 </r>
       <r>   24.5355    0.0000 </r>
       <r>   25.4385    0.0000 </r>
      </set>
      <set comment="kpoint 63">
       <r>   -4.6439    1.0000 </r>
       <r>   -2.5652    1.0000 </r>
       <r>    2.8647    1.0000 </r>
       <r>    2.8647    1.0000 </r>
       <r>   14.4161    0.0000 </r>
       <r>   15.1467    0.0000 </r>
       <r>   26.0430    0.0000 </r>
       <r>   26.0430    0.0000 </r>
      </set>
      <set comment="kpoint 64">
       <r>   -3.6028    1.0000 </r>
       <r>   -3.5502    1.0000 </r>
       <r>    2.4569    1.0000 </r>
       <r>    2.8918    1.0000 </r>
       <r>   14.7987    0.0000 </r>
       <r>   15.2896    0.0000 </r>
       <r>   25.9772    0.0000 </r>
       <r>   26.0845    0.0000 </r>
      </set>
      <set comment="kpoint 65">
       <r>  -11.3545    1.0000 </r>
       <r>    6.0560    1.0000 </r>
       <r>    6.6347    1.0000 </r>
       <r>    8.0447    1.0000 </r>
       <r>   15.2422    0.0000 </r>
       <r>   17.3503    0.0000 </r>
       <r>   17.3866    0.0000 </r>
       <r>   23.1388    0.0000 </r>
      </set>
      <set comment="kpoint 66">
       <r>  -10.7566    1.0000 </r>
       <r>    4.2549    1.0000 </r>
       <r>    5.8846    1.0000 </r>
       <r>    7.6173    1.0000 </r>
       <r>   15.8385    0.0000 </r>
       <r>   18.0609    0.0000 </r>
       <r>   18.2697    0.0000 </r>
       <r>   23.1805    0.0000 </r>
      </set>
      <set comment="kpoint 67">
       <r>   -9.9302    1.0000 </r>
       <r>    2.1566    1.0000 </r>
       <r>    5.4070    1.0000 </r>
       <r>    7.0440    1.0000 </r>
       <r>   16.5836    0.0000 </r>
       <r>   18.4527    0.0000 </r>
       <r>   19.0120    0.0000 </r>
       <r>   23.4109    0.0000 </r>
      </set>
      <set comment="kpoint 68">
       <r>   -8.8932    1.0000 </r>
       <r>    0.0684    1.0000 </r>
       <r>    5.1015    1.0000 </r>
       <r>    6.4670    1.0000 </r>
       <r>   17.2136    0.0000 </r>
       <r>   18.5813    0.0000 </r>
       <r>   19.4718    0.0000 </r>
       <r>   23.9790    0.0000 </r>
      </set>
      <set comment="kpoint 69">
       <r>   -7.6944    1.0000 </r>
       <r>   -1.8674    1.0000 </r>
       <r>    4.9555    1.0000 </r>
       <r>    5.9859    1.0000 </r>
       <r>   17.6321    0.0000 </r>
       <r>   18.5263    0.0000 </r>
       <r>   19.7041    0.0000 </r>
       <r>   24.7656    0.0000 </r>
      </set>
      <set comment="kpoint 70">
       <r>   -6.5591    1.0000 </r>
       <r>   -3.3808    1.0000 </r>
       <r>    4.9265    1.0000 </r>
       <r>    5.6911    1.0000 </r>
       <r>   17.8603    0.0000 </r>
       <r>   18.4150    0.0000 </r>
       <r>   19.7992    0.0000 </r>
       <r>   25.3710    0.0000 </r>
      </set>
      <set comment="kpoint 71">
       <r>  -10.5569    1.0000 </r>
       <r>    4.6460    1.0000 </r>
       <r>    5.3847    1.0000 </r>
       <r>    6.7591    1.0000 </r>
       <r>   14.9514    0.0000 </r>
       <r>   19.0531    0.0000 </r>
       <r>   19.3365    0.0000 </r>
       <r>   22.0953    0.0000 </r>
      </set>
      <set comment="kpoint 72">
       <r>   -9.8093    1.0000 </r>
       <r>    2.9228    1.0000 </r>
       <r>    4.6979    1.0000 </r>
       <r>    6.2782    1.0000 </r>
       <r>   15.5849    0.0000 </r>
       <r>   19.5278    0.0000 </r>
       <r>   20.2615    0.0000 </r>
       <r>   21.8008    0.0000 </r>
      </set>
      <set comment="kpoint 73">
       <r>   -8.8455    1.0000 </r>
       <r>    0.9521    1.0000 </r>
       <r>    4.3119    1.0000 </r>
       <r>    5.6969    1.0000 </r>
       <r>   16.3251    0.0000 </r>
       <r>   19.6998    0.0000 </r>
       <r>   20.8542    0.0000 </r>
       <r>   22.0987    0.0000 </r>
      </set>
      <set comment="kpoint 74">
       <r>   -7.6998    1.0000 </r>
       <r>   -0.9691    1.0000 </r>
       <r>    4.0566    1.0000 </r>
       <r>    5.2032    1.0000 </r>
       <r>   16.8889    0.0000 </r>
       <r>   19.6390    0.0000 </r>
       <r>   21.1686    0.0000 </r>
       <r>   23.0093    0.0000 </r>
      </set>
      <set comment="kpoint 75">
       <r>   -6.5002    1.0000 </r>
       <r>   -2.6308    1.0000 </r>
       <r>    3.8264    1.0000 </r>
       <r>    4.9778    1.0000 </r>
       <r>   17.2719    0.0000 </r>
       <r>   19.4371    0.0000 </r>
       <r>   21.3112    0.0000 </r>
       <r>   24.1975    0.0000 </r>
      </set>
      <set comment="kpoint 76">
       <r>   -5.9749    1.0000 </r>
       <r>   -3.2689    1.0000 </r>
       <r>    3.5924    1.0000 </r>
       <r>    5.0891    1.0000 </r>
       <r>   17.5985    0.0000 </r>
       <r>   19.1400    0.0000 </r>
       <r>   21.3101    0.0000 </r>
       <r>   24.9811    0.0000 </r>
      </set>
      <set comment="kpoint 77">
       <r>   -6.8933    1.0000 </r>
       <r>   -2.1059    1.0000 </r>
       <r>    3.4449    1.0000 </r>
       <r>    5.4572    1.0000 </r>
       <r>   17.9225    0.0000 </r>
       <r>   18.7501    0.0000 </r>
       <r>   21.1867    0.0000 </r>
       <r>   24.6049    0.0000 </r>
      </set>
      <set comment="kpoint 78">
       <r>   -8.1031    1.0000 </r>
       <r>   -0.3126    1.0000 </r>
       <r>    3.4588    1.0000 </r>
       <r>    5.9930    1.0000 </r>
       <r>   17.9873    0.0000 </r>
       <r>   18.4322    0.0000 </r>
       <r>   20.9098    0.0000 </r>
       <r>   23.6487    0.0000 </r>
      </set>
      <set comment="kpoint 79">
       <r>   -9.1928    1.0000 </r>
       <r>    1.6333    1.0000 </r>
       <r>    3.6896    1.0000 </r>
       <r>    6.6136    1.0000 </r>
       <r>   17.2939    0.0000 </r>
       <r>   18.5448    0.0000 </r>
       <r>   20.3336    0.0000 </r>
       <r>   22.9759    0.0000 </r>
      </set>
      <set comment="kpoint 80">
       <r>  -10.0855    1.0000 </r>
       <r>    3.3570    1.0000 </r>
       <r>    4.3616    1.0000 </r>
       <r>    7.2065    1.0000 </r>
       <r>   16.4569    0.0000 </r>
       <r>   18.4683    0.0000 </r>
       <r>   19.3723    0.0000 </r>
       <r>   22.9090    0.0000 </r>
      </set>
      <set comment="kpoint 81">
       <r>   -9.4538    1.0000 </r>
       <r>    3.1956    1.0000 </r>
       <r>    4.2739    1.0000 </r>
       <r>    5.2318    1.0000 </r>
       <r>   14.6967    0.0000 </r>
       <r>   20.2120    0.0000 </r>
       <r>   20.9018    0.0000 </r>
       <r>   21.4246    0.0000 </r>
      </set>
      <set comment="kpoint 82">
       <r>   -8.5675    1.0000 </r>
       <r>    1.6534    1.0000 </r>
       <r>    3.6122    1.0000 </r>
       <r>    4.7301    1.0000 </r>
       <r>   15.3818    0.0000 </r>
       <r>   19.9740    0.0000 </r>
       <r>   21.1948    0.0000 </r>
       <r>   22.3162    0.0000 </r>
      </set>
      <set comment="kpoint 83">
       <r>   -7.4876    1.0000 </r>
       <r>   -0.0869    1.0000 </r>
       <r>    3.1238    1.0000 </r>
       <r>    4.2954    1.0000 </r>
       <r>   16.0840    0.0000 </r>
       <r>   20.4850    0.0000 </r>
       <r>   21.2395    0.0000 </r>
       <r>   22.8692    0.0000 </r>
      </set>
      <set comment="kpoint 84">
       <r>   -6.2935    1.0000 </r>
       <r>   -1.7376    1.0000 </r>
       <r>    2.6158    1.0000 </r>
       <r>    4.1704    1.0000 </r>
       <r>   16.5624    0.0000 </r>
       <r>   20.9603    0.0000 </r>
       <r>   21.8106    0.0000 </r>
       <r>   23.1750    0.0000 </r>
      </set>
      <set comment="kpoint 85">
       <r>   -5.4071    1.0000 </r>
       <r>   -2.7998    1.0000 </r>
       <r>    2.1533    1.0000 </r>
       <r>    4.3506    1.0000 </r>
       <r>   16.9480    0.0000 </r>
       <r>   20.6450    0.0000 </r>
       <r>   22.6949    0.0000 </r>
       <r>   23.8357    0.0000 </r>
      </set>
      <set comment="kpoint 86">
       <r>   -5.9457    1.0000 </r>
       <r>   -2.1322    1.0000 </r>
       <r>    1.8402    1.0000 </r>
       <r>    4.7590    1.0000 </r>
       <r>   17.3724    0.0000 </r>
       <r>   20.1208    0.0000 </r>
       <r>   22.6756    0.0000 </r>
       <r>   24.4096    0.0000 </r>
      </set>
      <set comment="kpoint 87">
       <r>   -7.1205    1.0000 </r>
       <r>   -0.5593    1.0000 </r>
       <r>    1.7616    1.0000 </r>
       <r>    5.3305    1.0000 </r>
       <r>   17.8487    0.0000 </r>
       <r>   19.3416    0.0000 </r>
       <r>   22.4310    0.0000 </r>
       <r>   23.5561    0.0000 </r>
      </set>
      <set comment="kpoint 88">
       <r>   -8.2443    1.0000 </r>
       <r>    0.9368    1.0000 </r>
       <r>    2.2015    1.0000 </r>
       <r>    5.9879    1.0000 </r>
       <r>   18.2924    0.0000 </r>
       <r>   18.3253    0.0000 </r>
       <r>   21.6780    0.0000 </r>
       <r>   22.8640    0.0000 </r>
      </set>
      <set comment="kpoint 89">
       <r>   -8.0619    1.0000 </r>
       <r>    1.5350    1.0000 </r>
       <r>    3.3999    1.0000 </r>
       <r>    3.8998    1.0000 </r>
       <r>   14.5783    0.0000 </r>
       <r>   18.3488    0.0000 </r>
       <r>   22.7474    0.0000 </r>
       <r>   23.4071    0.0000 </r>
      </set>
      <set comment="kpoint 90">
       <r>   -7.0554    1.0000 </r>
       <r>    0.2595    1.0000 </r>
       <r>    2.6047    1.0000 </r>
       <r>    3.5249    1.0000 </r>
       <r>   15.3161    0.0000 </r>
       <r>   18.4037    0.0000 </r>
       <r>   22.8869    0.0000 </r>
       <r>   24.1298    0.0000 </r>
      </set>
      <set comment="kpoint 91">
       <r>   -5.9020    1.0000 </r>
       <r>   -1.0955    1.0000 </r>
       <r>    1.7208    1.0000 </r>
       <r>    3.4539    1.0000 </r>
       <r>   15.9203    0.0000 </r>
       <r>   19.4545    0.0000 </r>
       <r>   22.7660    0.0000 </r>
       <r>   24.4019    0.0000 </r>
      </set>
      <set comment="kpoint 92">
       <r>   -4.8404    1.0000 </r>
       <r>   -2.2327    1.0000 </r>
       <r>    0.9626    1.0000 </r>
       <r>    3.6527    1.0000 </r>
       <r>   16.3279    0.0000 </r>
       <r>   21.2398    0.0000 </r>
       <r>   22.4164    0.0000 </r>
       <r>   24.3071    0.0000 </r>
      </set>
      <set comment="kpoint 93">
       <r>   -4.9256    1.0000 </r>
       <r>   -2.0796    1.0000 </r>
       <r>    0.4783    1.0000 </r>
       <r>    4.0677    1.0000 </r>
       <r>   16.7619    0.0000 </r>
       <r>   21.7216    0.0000 </r>
       <r>   23.0993    0.0000 </r>
       <r>   24.0141    0.0000 </r>
      </set>
      <set comment="kpoint 94">
       <r>   -5.9973    1.0000 </r>
       <r>   -1.0210    1.0000 </r>
       <r>    0.5562    1.0000 </r>
       <r>    4.6503    1.0000 </r>
       <r>   17.2871    0.0000 </r>
       <r>   20.6621    0.0000 </r>
       <r>   23.5532    0.0000 </r>
       <r>   23.7259    0.0000 </r>
      </set>
      <set comment="kpoint 95">
       <r>   -6.4074    1.0000 </r>
       <r>   -0.4211    1.0000 </r>
       <r>    2.8112    1.0000 </r>
       <r>    3.0322    1.0000 </r>
       <r>   14.6729    0.0000 </r>
       <r>   16.8414    0.0000 </r>
       <r>   24.4132    0.0000 </r>
       <r>   25.0217    0.0000 </r>
      </set>
      <set comment="kpoint 96">
       <r>   -5.3135    1.0000 </r>
       <r>   -1.4726    1.0000 </r>
       <r>    1.8787    1.0000 </r>
       <r>    2.9102    1.0000 </r>
       <r>   15.4152    0.0000 </r>
       <r>   17.2802    0.0000 </r>
       <r>   24.4007    0.0000 </r>
       <r>   25.3350    0.0000 </r>
      </set>
      <set comment="kpoint 97">
       <r>   -4.1993    1.0000 </r>
       <r>   -2.3908    1.0000 </r>
       <r>    0.7958    1.0000 </r>
       <r>    3.0937    1.0000 </r>
       <r>   15.8448    0.0000 </r>
       <r>   18.8975    0.0000 </r>
       <r>   24.0533    0.0000 </r>
       <r>   25.0914    0.0000 </r>
      </set>
      <set comment="kpoint 98">
       <r>   -4.0168    1.0000 </r>
       <r>   -2.4478    1.0000 </r>
       <r>    0.0926    1.0000 </r>
       <r>    3.4923    1.0000 </r>
       <r>   16.2430    0.0000 </r>
       <r>   21.0658    0.0000 </r>
       <r>   23.1699    0.0000 </r>
       <r>   24.5912    0.0000 </r>
      </set>
      <set comment="kpoint 99">
       <r>   -4.5317    1.0000 </r>
       <r>   -2.5008    1.0000 </r>
       <r>    2.5366    1.0000 </r>
       <r>    2.5993    1.0000 </r>
       <r>   15.0441    0.0000 </r>
       <r>   15.7496    0.0000 </r>
       <r>   25.5960    0.0000 </r>
       <r>   25.8593    0.0000 </r>
      </set>
      <set comment="kpoint 100">
       <r>   -3.5024    1.0000 </r>
       <r>   -3.3130    1.0000 </r>
       <r>    1.6382    1.0000 </r>
       <r>    2.7241    1.0000 </r>
       <r>   15.5354    0.0000 </r>
       <r>   16.8145    0.0000 </r>
       <r>   25.2432    0.0000 </r>
       <r>   25.5579    0.0000 </r>
      </set>
      <set comment="kpoint 101">
       <r>   -8.9952    1.0000 </r>
       <r>    2.0763    1.0000 </r>
       <r>    3.2990    1.0000 </r>
       <r>    5.7793    1.0000 </r>
       <r>   16.3145    0.0000 </r>
       <r>   19.6623    0.0000 </r>
       <r>   21.4098    0.0000 </r>
       <r>   21.4730    0.0000 </r>
      </set>
      <set comment="kpoint 102">
       <r>   -7.9764    1.0000 </r>
       <r>    0.5215    1.0000 </r>
       <r>    2.7036    1.0000 </r>
       <r>    5.1579    1.0000 </r>
       <r>   17.2106    0.0000 </r>
       <r>   19.4895    0.0000 </r>
       <r>   21.5781    0.0000 </r>
       <r>   22.4924    0.0000 </r>
      </set>
      <set comment="kpoint 103">
       <r>   -6.8043    1.0000 </r>
       <r>   -1.2144    1.0000 </r>
       <r>    2.5318    1.0000 </r>
       <r>    4.5978    1.0000 </r>
       <r>   17.8543    0.0000 </r>
       <r>   19.2571    0.0000 </r>
       <r>   22.1858    0.0000 </r>
       <r>   23.3413    0.0000 </r>
      </set>
      <set comment="kpoint 104">
       <r>   -5.7023    1.0000 </r>
       <r>   -2.6281    1.0000 </r>
       <r>    2.5035    1.0000 </r>
       <r>    4.2565    1.0000 </r>
       <r>   18.1273    0.0000 </r>
       <r>   19.1200    0.0000 </r>
       <r>   22.6680    0.0000 </r>
       <r>   24.1562    0.0000 </r>
      </set>
      <set comment="kpoint 105">
       <r>   -7.6257    1.0000 </r>
       <r>    0.8086    1.0000 </r>
       <r>    2.4750    1.0000 </r>
       <r>    4.1647    1.0000 </r>
       <r>   16.2427    0.0000 </r>
       <r>   19.6710    0.0000 </r>
       <r>   21.2306    0.0000 </r>
       <r>   23.4713    0.0000 </r>
      </set>
      <set comment="kpoint 106">
       <r>   -6.5120    1.0000 </r>
       <r>   -0.4941    1.0000 </r>
       <r>    1.8745    1.0000 </r>
       <r>    3.5969    1.0000 </r>
       <r>   17.1626    0.0000 </r>
       <r>   20.0176    0.0000 </r>
       <r>   21.1818    0.0000 </r>
       <r>   24.1531    0.0000 </r>
      </set>
      <set comment="kpoint 107">
       <r>   -5.3551    1.0000 </r>
       <r>   -1.8691    1.0000 </r>
       <r>    1.5210    1.0000 </r>
       <r>    3.3142    1.0000 </r>
       <r>   17.7102    0.0000 </r>
       <r>   20.4457    0.0000 </r>
       <r>   21.8085    0.0000 </r>
       <r>   24.1982    0.0000 </r>
      </set>
      <set comment="kpoint 108">
       <r>   -4.8671    1.0000 </r>
       <r>   -2.4018    1.0000 </r>
       <r>    1.2303    1.0000 </r>
       <r>    3.4270    1.0000 </r>
       <r>   18.0923    0.0000 </r>
       <r>   20.1707    0.0000 </r>
       <r>   23.1890    0.0000 </r>
       <r>   23.6018    0.0000 </r>
      </set>
      <set comment="kpoint 109">
       <r>   -5.7579    1.0000 </r>
       <r>   -1.3638    1.0000 </r>
       <r>    1.0955    1.0000 </r>
       <r>    3.8564    1.0000 </r>
       <r>   18.5142    0.0000 </r>
       <r>   19.5346    0.0000 </r>
       <r>   22.4801    0.0000 </r>
       <r>   24.0572    0.0000 </r>
      </set>
      <set comment="kpoint 110">
       <r>   -6.9216    1.0000 </r>
       <r>   -0.1079    1.0000 </r>
       <r>    1.4355    1.0000 </r>
       <r>    4.4799    1.0000 </r>
       <r>   18.4304    0.0000 </r>
       <r>   19.0314    0.0000 </r>
       <r>   21.8005    0.0000 </r>
       <r>   23.5923    0.0000 </r>
      </set>
      <set comment="kpoint 111">
       <r>   -6.0127    1.0000 </r>
       <r>   -0.6321    1.0000 </r>
       <r>    1.9508    1.0000 </r>
       <r>    2.8132    1.0000 </r>
       <r>   16.3471    0.0000 </r>
       <r>   18.3374    0.0000 </r>
       <r>   22.7811    0.0000 </r>
       <r>   24.9083    0.0000 </r>
      </set>
      <set comment="kpoint 112">
       <r>   -4.8685    1.0000 </r>
       <r>   -1.6341    1.0000 </r>
       <r>    1.1889    1.0000 </r>
       <r>    2.5112    1.0000 </r>
       <r>   17.2031    0.0000 </r>
       <r>   19.2849    0.0000 </r>
       <r>   22.5297    0.0000 </r>
       <r>   24.7874    0.0000 </r>
      </set>
      <set comment="kpoint 113">
       <r>   -4.0606    1.0000 </r>
       <r>   -2.3264    1.0000 </r>
       <r>    0.4863    1.0000 </r>
       <r>    2.6992    1.0000 </r>
       <r>   17.6256    0.0000 </r>
       <r>   21.1133    0.0000 </r>
       <r>   22.1583    0.0000 </r>
       <r>   23.8408    0.0000 </r>
      </set>
      <set comment="kpoint 114">
       <r>   -4.6661    1.0000 </r>
       <r>   -1.7916    1.0000 </r>
       <r>    0.2905    1.0000 </r>
       <r>    3.1826    1.0000 </r>
       <r>   18.0539    0.0000 </r>
       <r>   21.0090    0.0000 </r>
       <r>   22.8968    0.0000 </r>
       <r>   23.2359    0.0000 </r>
      </set>
      <set comment="kpoint 115">
       <r>   -4.2189    1.0000 </r>
       <r>   -2.3602    1.0000 </r>
       <r>    1.7776    1.0000 </r>
       <r>    2.0271    1.0000 </r>
       <r>   16.6967    0.0000 </r>
       <r>   17.3456    0.0000 </r>
       <r>   24.2457    0.0000 </r>
       <r>   25.1680    0.0000 </r>
      </set>
      <set comment="kpoint 116">
       <r>   -3.3754    1.0000 </r>
       <r>   -2.9296    1.0000 </r>
       <r>    0.8856    1.0000 </r>
       <r>    2.1778    1.0000 </r>
       <r>   17.2509    0.0000 </r>
       <r>   18.9606    0.0000 </r>
       <r>   23.7290    0.0000 </r>
       <r>   24.2214    0.0000 </r>
      </set>
      <set comment="kpoint 117">
       <r>   -5.3992    1.0000 </r>
       <r>   -1.1220    1.0000 </r>
       <r>    1.0048    1.0000 </r>
       <r>    2.8615    1.0000 </r>
       <r>   18.5990    0.0000 </r>
       <r>   19.7974    0.0000 </r>
       <r>   21.2139    0.0000 </r>
       <r>   24.4878    0.0000 </r>
      </set>
      <set comment="kpoint 118">
       <r>   -4.3486    1.0000 </r>
       <r>   -2.0240    1.0000 </r>
       <r>    0.7155    1.0000 </r>
       <r>    2.3865    1.0000 </r>
       <r>   19.2715    0.0000 </r>
       <r>   20.0899    0.0000 </r>
       <r>   21.9153    0.0000 </r>
       <r>   23.4577    0.0000 </r>
      </set>
      <set comment="kpoint 119">
       <r>   -3.7931    1.0000 </r>
       <r>   -2.3105    1.0000 </r>
       <r>    1.0105    1.0000 </r>
       <r>    1.6068    1.0000 </r>
       <r>   18.9326    0.0000 </r>
       <r>   19.4461    0.0000 </r>
       <r>   22.2513    0.0000 </r>
       <r>   23.6980    0.0000 </r>
      </set>
      <set comment="kpoint 120">
       <r>   -3.4456    1.0000 </r>
       <r>   -2.5259    1.0000 </r>
       <r>    0.6278    1.0000 </r>
       <r>    1.6812    1.0000 </r>
       <r>   19.4288    0.0000 </r>
       <r>   20.9244    0.0000 </r>
       <r>   21.9606    0.0000 </r>
       <r>   22.2390    0.0000 </r>
      </set>
     </set>
    </set>
   </array>
  </eigenvalues>
  <separator name="orbital magnetization" >
   <v name="MAGDIPOLOUT">      0.00000000      0.00000000      0.00000000</v>
  </separator>
  <dos>
   <i name="efermi">      9.21053642 </i>
   <total>
    <array>
     <dimension dim="1">gridpoints</dimension>
     <dimension dim="2">spin</dimension>
     <field>energy</field>
     <field>total</field>
     <field>integrated</field>
     <set>
      <set comment="spin 1">
       <r>   -14.0716     0.0000     0.0000 </r>
       <r>   -13.9314     0.0000     0.0000 </r>
       <r>   -13.7912     0.0000     0.0000 </r>
       <r>   -13.6510     0.0000     0.0000 </r>
       <r>   -13.5107     0.0000     0.0000 </r>
       <r>   -13.3705     0.0000     0.0000 </r>
       <r>   -13.2303     0.0000     0.0000 </r>
       <r>   -13.0900     0.0000     0.0000 </r>
       <r>   -12.9498     0.0000     0.0000 </r>
       <r>   -12.8096     0.0000     0.0000 </r>
       <r>   -12.6694     0.0000     0.0000 </r>
       <r>   -12.5291     0.0000     0.0000 </r>
       <r>   -12.3889     0.0000     0.0000 </r>
       <r>   -12.2487     0.0000     0.0000 </r>
       <r>   -12.1085     0.0047     0.0007 </r>
       <r>   -11.9682     0.0528     0.0081 </r>
       <r>   -11.8280     0.0362     0.0131 </r>
       <r>   -11.6878     0.1126     0.0289 </r>
       <r>   -11.5475     0.0475     0.0356 </r>
       <r>   -11.4073     0.0644     0.0446 </r>
       <r>   -11.2671     0.1607     0.0672 </r>
       <r>   -11.1269     0.1067     0.0821 </r>
       <r>   -10.9866     0.1278     0.1000 </r>
       <r>   -10.8464     0.0425     0.1060 </r>
       <r>   -10.7062     0.2751     0.1446 </r>
       <r>   -10.5659     0.1040     0.1592 </r>
       <r>   -10.4257     0.1520     0.1805 </r>
       <r>   -10.2855     0.1161     0.1968 </r>
       <r>   -10.1453     0.0885     0.2092 </r>
       <r>   -10.0050     0.2476     0.2439 </r>
       <r>    -9.8648     0.2142     0.2739 </r>
       <r>    -9.7246     0.2884     0.3144 </r>
       <r>    -9.5844     0.0221     0.3175 </r>
       <r>    -9.4441     0.2391     0.3510 </r>
       <r>    -9.3039     0.1462     0.3715 </r>
       <r>    -9.1637     0.3116     0.4152 </r>
       <r>    -9.0234     0.1245     0.4327 </r>
       <r>    -8.8832     0.2666     0.4700 </r>
       <r>    -8.7430     0.3393     0.5176 </r>
       <r>    -8.6028     0.1147     0.5337 </r>
       <r>    -8.4625     0.1751     0.5582 </r>
       <r>    -8.3223     0.1564     0.5802 </r>
       <r>    -8.1821     0.3640     0.6312 </r>
       <r>    -8.0418     0.3006     0.6734 </r>
       <r>    -7.9016     0.4128     0.7313 </r>
       <r>    -7.7614     0.0522     0.7386 </r>
       <r>    -7.6212     0.4409     0.8004 </r>
       <r>    -7.4809     0.2210     0.8314 </r>
       <r>    -7.3407     0.1811     0.8568 </r>
       <r>    -7.2005     0.1287     0.8748 </r>
       <r>    -7.0603     0.6154     0.9611 </r>
       <r>    -6.9200     0.2728     0.9994 </r>
       <r>    -6.7798     0.5224     1.0726 </r>
       <r>    -6.6396     0.1251     1.0902 </r>
       <r>    -6.4993     0.5386     1.1657 </r>
       <r>    -6.3591     0.2942     1.2070 </r>
       <r>    -6.2189     0.3842     1.2608 </r>
       <r>    -6.0787     0.0557     1.2686 </r>
       <r>    -5.9384     0.7686     1.3764 </r>
       <r>    -5.7982     0.3401     1.4241 </r>
       <r>    -5.6580     0.3717     1.4762 </r>
       <r>    -5.5178     0.1969     1.5038 </r>
       <r>    -5.3775     0.3103     1.5474 </r>
       <r>    -5.2373     0.4109     1.6050 </r>
       <r>    -5.0971     0.1670     1.6284 </r>
       <r>    -4.9568     0.1058     1.6432 </r>
       <r>    -4.8166     0.7137     1.7433 </r>
       <r>    -4.6764     0.1246     1.7608 </r>
       <r>    -4.5362     0.1290     1.7789 </r>
       <r>    -4.3959     0.1648     1.8020 </r>
       <r>    -4.2557     0.3200     1.8469 </r>
       <r>    -4.1155     0.2913     1.8877 </r>
       <r>    -3.9752     0.2799     1.9270 </r>
       <r>    -3.8350     0.0544     1.9346 </r>
       <r>    -3.6948     0.1751     1.9591 </r>
       <r>    -3.5546     0.1814     1.9846 </r>
       <r>    -3.4143     0.3248     2.0301 </r>
       <r>    -3.2741     0.4521     2.0935 </r>
       <r>    -3.1339     0.1878     2.1199 </r>
       <r>    -2.9937     0.0574     2.1279 </r>
       <r>    -2.8534     0.3384     2.1753 </r>
       <r>    -2.7132     0.3072     2.2184 </r>
       <r>    -2.5730     0.5471     2.2952 </r>
       <r>    -2.4327     0.5265     2.3690 </r>
       <r>    -2.2925     0.9163     2.4975 </r>
       <r>    -2.1523     0.3497     2.5465 </r>
       <r>    -2.0121     0.7754     2.6553 </r>
       <r>    -1.8718     0.2763     2.6940 </r>
       <r>    -1.7316     0.5203     2.7670 </r>
       <r>    -1.5914     0.3310     2.8134 </r>
       <r>    -1.4511     0.3629     2.8643 </r>
       <r>    -1.3109     0.5559     2.9422 </r>
       <r>    -1.1707     0.2496     2.9772 </r>
       <r>    -1.0305     0.4170     3.0357 </r>
       <r>    -0.8902     0.2604     3.0722 </r>
       <r>    -0.7500     0.0519     3.0795 </r>
       <r>    -0.6098     0.2170     3.1099 </r>
       <r>    -0.4696     0.6023     3.1944 </r>
       <r>    -0.3293     0.2330     3.2271 </r>
       <r>    -0.1891     0.1462     3.2476 </r>
       <r>    -0.0489     0.3486     3.2965 </r>
       <r>     0.0914     0.2826     3.3361 </r>
       <r>     0.2316     0.1618     3.3588 </r>
       <r>     0.3718     0.4054     3.4156 </r>
       <r>     0.5120     0.5599     3.4941 </r>
       <r>     0.6523     0.5619     3.5729 </r>
       <r>     0.7925     0.4353     3.6340 </r>
       <r>     0.9327     0.5232     3.7073 </r>
       <r>     1.0729     0.8107     3.8210 </r>
       <r>     1.2132     0.4891     3.8896 </r>
       <r>     1.3534     0.3816     3.9431 </r>
       <r>     1.4936     0.2487     3.9780 </r>
       <r>     1.6339     0.6441     4.0683 </r>
       <r>     1.7741     0.8559     4.1883 </r>
       <r>     1.9143     0.8037     4.3010 </r>
       <r>     2.0545     0.2916     4.3419 </r>
       <r>     2.1948     0.6720     4.4361 </r>
       <r>     2.3350     0.2900     4.4768 </r>
       <r>     2.4752     0.3727     4.5291 </r>
       <r>     2.6155     1.2796     4.7085 </r>
       <r>     2.7557     0.9381     4.8401 </r>
       <r>     2.8959     0.7144     4.9402 </r>
       <r>     3.0361     0.4953     5.0097 </r>
       <r>     3.1764     0.7959     5.1213 </r>
       <r>     3.3166     0.5081     5.1925 </r>
       <r>     3.4568     1.0573     5.3408 </r>
       <r>     3.5970     1.2812     5.5205 </r>
       <r>     3.7373     0.8309     5.6370 </r>
       <r>     3.8775     0.4964     5.7066 </r>
       <r>     4.0177     0.3967     5.7622 </r>
       <r>     4.1580     0.7025     5.8607 </r>
       <r>     4.2982     1.1615     6.0236 </r>
       <r>     4.4384     0.9443     6.1560 </r>
       <r>     4.5786     0.3791     6.2092 </r>
       <r>     4.7189     0.8831     6.3330 </r>
       <r>     4.8591     0.6119     6.4188 </r>
       <r>     4.9993     0.8439     6.5372 </r>
       <r>     5.1396     0.7040     6.6359 </r>
       <r>     5.2798     0.6356     6.7250 </r>
       <r>     5.4200     0.6895     6.8217 </r>
[...]
       </set>
       <set comment="band 5">
        <r>  0.0413  0.0104  0.2158  0.0183  0.0000  0.0000  0.0000  0.0000  0.0000 </r>
        <r>  0.0413  0.0104  0.2158  0.0183  0.0000  0.0000  0.0000  0.0000  0.0000 </r>
       </set>
       <set comment="band 6">
        <r>  0.0413  0.0718  0.0510  0.0846  0.0000  0.0000  0.0000  0.0000  0.0000 </r>
        <r>  0.0413  0.0718  0.0510  0.0846  0.0000  0.0000  0.0000  0.0000  0.0000 </r>
       </set>
       <set comment="band 7">
        <r>  0.1432  0.0838  0.0020  0.0624  0.0000  0.0000  0.0000  0.0000  0.0000 </r>
        <r>  0.1432  0.0838  0.0020  0.0624  0.0000  0.0000  0.0000  0.0000  0.0000 </r>
       </set>
       <set comment="band 8">
        <r>  0.0305  0.1133  0.0766  0.1582  0.0000  0.0000  0.0000  0.0000  0.0000 </r>
        <r>  0.0305  0.1133  0.0766  0.1582  0.0000  0.0000  0.0000  0.0000  0.0000 </r>
       </set>
      </set>
      <set comment="kpoint 111">
       <set comment="band 1">
        <r>  0.2406  0.0136  0.0036  0.0604  0.0000  0.0000  0.0000  0.0000  0.0000 </r>
        <r>  0.2406  0.0136  0.0036  0.0604  0.0000  0.0000  0.0000  0.0000  0.0000 </r>
       </set>
       <set comment="band 2">
        <r>  0.1950  0.0343  0.0221  0.0996  0.0000  0.0000  0.0000  0.0000  0.0000 </r>
        <r>  0.1950  0.0343  0.0221  0.0996  0.0000  0.0000  0.0000  0.0000  0.0000 </r>
       </set>
       <set comment="band 3">
        <r>  0.0170  0.0695  0.1397  0.0865  0.0000  0.0000  0.0000  0.0000  0.0000 </r>
        <r>  0.0170  0.0695  0.1397  0.0865  0.0000  0.0000  0.0000  0.0000  0.0000 </r>
       </set>
       <set comment="band 4">
        <r>  0.0012  0.1680  0.1298  0.0171  0.0000  0.0000  0.0000  0.0000  0.0000 </r>
        <r>  0.0012  0.1680  0.1298  0.0171  0.0000  0.0000  0.0000  0.0000  0.0000 </r>
       </set>
       <set comment="band 5">
        <r>  0.0792  0.0972  0.0326  0.0291  0.0000  0.0000  0.0000  0.0000  0.0000 </r>
        <r>  0.0792  0.0972  0.0326  0.0291  0.0000  0.0000  0.0000  0.0000  0.0000 </r>
       </set>
       <set comment="band 6">
        <r>  0.0863  0.0018  0.0299  0.0750  0.0000  0.0000  0.0000  0.0000  0.0000 </r>
        <r>  0.0863  0.0018  0.0299  0.0750  0.0000  0.0000  0.0000  0.0000  0.0000 </r>
       </set>
       <set comment="band 7">
        <r>  0.0556  0.1292  0.1374  0.0259  0.0000  0.0000  0.0000  0.0000  0.0000 </r>
        <r>  0.0556  0.1292  0.1374  0.0259  0.0000  0.0000  0.0000  0.0000  0.0000 </r>
       </set>
       <set comment="band 8">
        <r>  0.0137  0.1227  0.1939  0.0718  0.0000  0.0000  0.0000  0.0000  0.0000 </r>
        <r>  0.0137  0.1227  0.1939  0.0718  0.0000  0.0000  0.0000  0.0000  0.0000 </r>
       </set>
      </set>
      <set comment="kpoint 112">
       <set comment="band 1">
        <r>  0.2406  0.0169  0.0042  0.0662  0.0000  0.0000  0.0000  0.0000  0.0000 </r>
        <r>  0.2406  0.0169  0.0042  0.0662  0.0000  0.0000  0.0000  0.0000  0.0000 </r>
       </set>
       <set comment="band 2">
        <r>  0.2046  0.0288  0.0083  0.1037  0.0000  0.0000  0.0000  0.0000  0.0000 </r>
        <r>  0.2046  0.0288  0.0083  0.1037  0.0000  0.0000  0.0000  0.0000  0.0000 </r>
       </set>
       <set comment="band 3">
        <r>  0.0176  0.1735  0.0318  0.0768  0.0000  0.0000  0.0000  0.0000  0.0000 </r>
        <r>  0.0176  0.1735  0.0318  0.0768  0.0000  0.0000  0.0000  0.0000  0.0000 </r>
       </set>
       <set comment="band 4">
        <r>  0.0026  0.0508  0.2523  0.0078  0.0000  0.0000  0.0000  0.0000  0.0000 </r>
        <r>  0.0026  0.0508  0.2523  0.0078  0.0000  0.0000  0.0000  0.0000  0.0000 </r>
       </set>
       <set comment="band 5">
        <r>  0.0764  0.0784  0.0502  0.0228  0.0000  0.0000  0.0000  0.0000  0.0000 </r>
        <r>  0.0764  0.0784  0.0502  0.0228  0.0000  0.0000  0.0000  0.0000  0.0000 </r>
       </set>
       <set comment="band 6">
        <r>  0.0650  0.0481  0.0176  0.0936  0.0000  0.0000  0.0000  0.0000  0.0000 </r>
        <r>  0.0650  0.0481  0.0176  0.0936  0.0000  0.0000  0.0000  0.0000  0.0000 </r>
       </set>
       <set comment="band 7">
        <r>  0.0690  0.1051  0.1523  0.0150  0.0000  0.0000  0.0000  0.0000  0.0000 </r>
        <r>  0.0690  0.1051  0.1523  0.0150  0.0000  0.0000  0.0000  0.0000  0.0000 </r>
       </set>
       <set comment="band 8">
        <r>  0.0319  0.1165  0.1584  0.0873  0.0000  0.0000  0.0000  0.0000  0.0000 </r>
        <r>  0.0319  0.1165  0.1584  0.0873  0.0000  0.0000  0.0000  0.0000  0.0000 </r>
       </set>
      </set>
      <set comment="kpoint 113">
       <set comment="band 1">
        <r>  0.2570  0.0341  0.0065  0.0439  0.0000  0.0000  0.0000  0.0000  0.0000 </r>
        <r>  0.2570  0.0341  0.0065  0.0439  0.0000  0.0000  0.0000  0.0000  0.0000 </r>
       </set>
       <set comment="band 2">
        <r>  0.1932  0.0214  0.0028  0.1168  0.0000  0.0000  0.0000  0.0000  0.0000 </r>
        <r>  0.1932  0.0214  0.0028  0.1168  0.0000  0.0000  0.0000  0.0000  0.0000 </r>
       </set>
       <set comment="band 3">
        <r>  0.0147  0.1872  0.0060  0.0804  0.0000  0.0000  0.0000  0.0000  0.0000 </r>
        <r>  0.0147  0.1872  0.0060  0.0804  0.0000  0.0000  0.0000  0.0000  0.0000 </r>
       </set>
       <set comment="band 4">
        <r>  0.0059  0.0165  0.2840  0.0107  0.0000  0.0000  0.0000  0.0000  0.0000 </r>
        <r>  0.0059  0.0165  0.2840  0.0107  0.0000  0.0000  0.0000  0.0000  0.0000 </r>
       </set>
       <set comment="band 5">
        <r>  0.0707  0.0551  0.0540  0.0412  0.0000  0.0000  0.0000  0.0000  0.0000 </r>
        <r>  0.0707  0.0551  0.0540  0.0412  0.0000  0.0000  0.0000  0.0000  0.0000 </r>
       </set>
       <set comment="band 6">
        <r>  0.0296  0.0838  0.0587  0.0803  0.0000  0.0000  0.0000  0.0000  0.0000 </r>
        <r>  0.0296  0.0838  0.0587  0.0803  0.0000  0.0000  0.0000  0.0000  0.0000 </r>
       </set>
       <set comment="band 7">
        <r>  0.0828  0.0788  0.1602  0.0263  0.0000  0.0000  0.0000  0.0000  0.0000 </r>
        <r>  0.0828  0.0788  0.1602  0.0263  0.0000  0.0000  0.0000  0.0000  0.0000 </r>
       </set>
       <set comment="band 8">
        <r>  0.0677  0.1172  0.0672  0.1069  0.0000  0.0000  0.0000  0.0000  0.0000 </r>
        <r>  0.0677  0.1172  0.0672  0.1069  0.0000  0.0000  0.0000  0.0000  0.0000 </r>
       </set>
      </set>
      <set comment="kpoint 114">
       <set comment="band 1">
        <r>  0.2542  0.0433  0.0063  0.0313  0.0000  0.0000  0.0000  0.0000  0.0000 </r>
        <r>  0.2542  0.0433  0.0063  0.0313  0.0000  0.0000  0.0000  0.0000  0.0000 </r>
       </set>
       <set comment="band 2">
        <r>  0.1937  0.0639  0.0022  0.0799  0.0000  0.0000  0.0000  0.0000  0.0000 </r>
        <r>  0.1937  0.0639  0.0022  0.0799  0.0000  0.0000  0.0000  0.0000  0.0000 </r>
       </set>
       <set comment="band 3">
        <r>  0.0136  0.1378  0.0027  0.1309  0.0000  0.0000  0.0000  0.0000  0.0000 </r>
        <r>  0.0136  0.1378  0.0027  0.1309  0.0000  0.0000  0.0000  0.0000  0.0000 </r>
       </set>
       <set comment="band 4">
        <r>  0.0075  0.0075  0.2922  0.0151  0.0000  0.0000  0.0000  0.0000  0.0000 </r>
        <r>  0.0075  0.0075  0.2922  0.0151  0.0000  0.0000  0.0000  0.0000  0.0000 </r>
       </set>
       <set comment="band 5">
        <r>  0.0614  0.0487  0.0538  0.0617  0.0000  0.0000  0.0000  0.0000  0.0000 </r>
        <r>  0.0614  0.0487  0.0538  0.0617  0.0000  0.0000  0.0000  0.0000  0.0000 </r>
       </set>
       <set comment="band 6">
        <r>  0.0260  0.0057  0.2579  0.0102  0.0000  0.0000  0.0000  0.0000  0.0000 </r>
        <r>  0.0260  0.0057  0.2579  0.0102  0.0000  0.0000  0.0000  0.0000  0.0000 </r>
       </set>
       <set comment="band 7">
        <r>  0.1087  0.1322  0.0004  0.0869  0.0000  0.0000  0.0000  0.0000  0.0000 </r>
        <r>  0.1087  0.1322  0.0004  0.0869  0.0000  0.0000  0.0000  0.0000  0.0000 </r>
       </set>
       <set comment="band 8">
        <r>  0.0617  0.1417  0.0050  0.1399  0.0000  0.0000  0.0000  0.0000  0.0000 </r>
        <r>  0.0617  0.1417  0.0050  0.1399  0.0000  0.0000  0.0000  0.0000  0.0000 </r>
       </set>
      </set>
      <set comment="kpoint 115">
       <set comment="band 1">
        <r>  0.2302  0.0237  0.0040  0.0717  0.0000  0.0000  0.0000  0.0000  0.0000 </r>
        <r>  0.2302  0.0237  0.0040  0.0717  0.0000  0.0000  0.0000  0.0000  0.0000 </r>
       </set>
       <set comment="band 2">
        <r>  0.2180  0.0418  0.0077  0.0747  0.0000  0.0000  0.0000  0.0000  0.0000 </r>
        <r>  0.2180  0.0418  0.0077  0.0747  0.0000  0.0000  0.0000  0.0000  0.0000 </r>
       </set>
       <set comment="band 3">
        <r>  0.0105  0.0678  0.1412  0.0909  0.0000  0.0000  0.0000  0.0000  0.0000 </r>
        <r>  0.0105  0.0678  0.1412  0.0909  0.0000  0.0000  0.0000  0.0000  0.0000 </r>
       </set>
       <set comment="band 4">
        <r>  0.0024  0.1449  0.1403  0.0224  0.0000  0.0000  0.0000  0.0000  0.0000 </r>
        <r>  0.0024  0.1449  0.1403  0.0224  0.0000  0.0000  0.0000  0.0000  0.0000 </r>
       </set>
       <set comment="band 5">
        <r>  0.0867  0.0837  0.0313  0.0187  0.0000  0.0000  0.0000  0.0000  0.0000 </r>
        <r>  0.0867  0.0837  0.0313  0.0187  0.0000  0.0000  0.0000  0.0000  0.0000 </r>
       </set>
       <set comment="band 6">
        <r>  0.0888  0.0034  0.0302  0.0825  0.0000  0.0000  0.0000  0.0000  0.0000 </r>
        <r>  0.0888  0.0034  0.0302  0.0825  0.0000  0.0000  0.0000  0.0000  0.0000 </r>
       </set>
       <set comment="band 7">
        <r>  0.0381  0.1470  0.1555  0.0282  0.0000  0.0000  0.0000  0.0000  0.0000 </r>
        <r>  0.0381  0.1470  0.1555  0.0282  0.0000  0.0000  0.0000  0.0000  0.0000 </r>
       </set>
       <set comment="band 8">
        <r>  0.0228  0.0955  0.1818  0.0970  0.0000  0.0000  0.0000  0.0000  0.0000 </r>
        <r>  0.0228  0.0955  0.1818  0.0970  0.0000  0.0000  0.0000  0.0000  0.0000 </r>
       </set>
      </set>
      <set comment="kpoint 116">
       <set comment="band 1">
        <r>  0.2436  0.0342  0.0080  0.0571  0.0000  0.0000  0.0000  0.0000  0.0000 </r>
        <r>  0.2436  0.0342  0.0080  0.0571  0.0000  0.0000  0.0000  0.0000  0.0000 </r>
       </set>
       <set comment="band 2">
        <r>  0.2171  0.0450  0.0024  0.0724  0.0000  0.0000  0.0000  0.0000  0.0000 </r>
        <r>  0.2171  0.0450  0.0024  0.0724  0.0000  0.0000  0.0000  0.0000  0.0000 </r>
       </set>
       <set comment="band 3">
        <r>  0.0022  0.1760  0.0002  0.1124  0.0000  0.0000  0.0000  0.0000  0.0000 </r>
        <r>  0.0022  0.1760  0.0002  0.1124  0.0000  0.0000  0.0000  0.0000  0.0000 </r>
       </set>
       <set comment="band 4">
        <r>  0.0065  0.0070  0.2850  0.0141  0.0000  0.0000  0.0000  0.0000  0.0000 </r>
        <r>  0.0065  0.0070  0.2850  0.0141  0.0000  0.0000  0.0000  0.0000  0.0000 </r>
       </set>
       <set comment="band 5">
        <r>  0.0813  0.0309  0.0549  0.0480  0.0000  0.0000  0.0000  0.0000  0.0000 </r>
        <r>  0.0813  0.0309  0.0549  0.0480  0.0000  0.0000  0.0000  0.0000  0.0000 </r>
       </set>
       <set comment="band 6">
        <r>  0.0692  0.0836  0.0100  0.0735  0.0000  0.0000  0.0000  0.0000  0.0000 </r>
        <r>  0.0692  0.0836  0.0100  0.0735  0.0000  0.0000  0.0000  0.0000  0.0000 </r>
       </set>
       <set comment="band 7">
        <r>  0.0360  0.0082  0.2993  0.0162  0.0000  0.0000  0.0000  0.0000  0.0000 </r>
        <r>  0.0360  0.0082  0.2993  0.0162  0.0000  0.0000  0.0000  0.0000  0.0000 </r>
       </set>
       <set comment="band 8">
        <r>  0.0569  0.1963  0.0000  0.1121  0.0000  0.0000  0.0000  0.0000  0.0000 </r>
        <r>  0.0569  0.1963  0.0000  0.1121  0.0000  0.0000  0.0000  0.0000  0.0000 </r>
       </set>
      </set>
      <set comment="kpoint 117">
       <set comment="band 1">
        <r>  0.2452  0.0105  0.0082  0.0613  0.0000  0.0000  0.0000  0.0000  0.0000 </r>
        <r>  0.2452  0.0105  0.0082  0.0613  0.0000  0.0000  0.0000  0.0000  0.0000 </r>
       </set>
       <set comment="band 2">
        <r>  0.1948  0.0313  0.0430  0.0782  0.0000  0.0000  0.0000  0.0000  0.0000 </r>
        <r>  0.1948  0.0313  0.0430  0.0782  0.0000  0.0000  0.0000  0.0000  0.0000 </r>
       </set>
       <set comment="band 3">
        <r>  0.0207  0.0549  0.1227  0.0993  0.0000  0.0000  0.0000  0.0000  0.0000 </r>
        <r>  0.0207  0.0549  0.1227  0.0993  0.0000  0.0000  0.0000  0.0000  0.0000 </r>
       </set>
       <set comment="band 4">
        <r>  0.0058  0.1864  0.1006  0.0210  0.0000  0.0000  0.0000  0.0000  0.0000 </r>
        <r>  0.0058  0.1864  0.1006  0.0210  0.0000  0.0000  0.0000  0.0000  0.0000 </r>
       </set>
       <set comment="band 5">
        <r>  0.0549  0.1331  0.0556  0.0229  0.0000  0.0000  0.0000  0.0000  0.0000 </r>
        <r>  0.0549  0.1331  0.0556  0.0229  0.0000  0.0000  0.0000  0.0000  0.0000 </r>
       </set>
       <set comment="band 6">
        <r>  0.0007  0.0388  0.0944  0.0657  0.0000  0.0000  0.0000  0.0000  0.0000 </r>
        <r>  0.0007  0.0388  0.0944  0.0657  0.0000  0.0000  0.0000  0.0000  0.0000 </r>
       </set>
       <set comment="band 7">
        <r>  0.1576  0.0658  0.0569  0.0579  0.0000  0.0000  0.0000  0.0000  0.0000 </r>
        <r>  0.1576  0.0658  0.0569  0.0579  0.0000  0.0000  0.0000  0.0000  0.0000 </r>
       </set>
       <set comment="band 8">
        <r>  0.0347  0.0945  0.1753  0.0898  0.0000  0.0000  0.0000  0.0000  0.0000 </r>
        <r>  0.0347  0.0945  0.1753  0.0898  0.0000  0.0000  0.0000  0.0000  0.0000 </r>
       </set>
      </set>
      <set comment="kpoint 118">
       <set comment="band 1">
        <r>  0.2529  0.0201  0.0113  0.0532  0.0000  0.0000  0.0000  0.0000  0.0000 </r>
        <r>  0.2529  0.0201  0.0113  0.0532  0.0000  0.0000  0.0000  0.0000  0.0000 </r>
       </set>
       <set comment="band 2">
        <r>  0.1919  0.0257  0.0140  0.1055  0.0000  0.0000  0.0000  0.0000  0.0000 </r>
        <r>  0.1919  0.0257  0.0140  0.1055  0.0000  0.0000  0.0000  0.0000  0.0000 </r>
       </set>
       <set comment="band 3">
        <r>  0.0258  0.1050  0.0879  0.0770  0.0000  0.0000  0.0000  0.0000  0.0000 </r>
        <r>  0.0258  0.1050  0.0879  0.0770  0.0000  0.0000  0.0000  0.0000  0.0000 </r>
       </set>
       <set comment="band 4">
        <r>  0.0032  0.1214  0.1634  0.0194  0.0000  0.0000  0.0000  0.0000  0.0000 </r>
        <r>  0.0032  0.1214  0.1634  0.0194  0.0000  0.0000  0.0000  0.0000  0.0000 </r>
       </set>
       <set comment="band 5">
        <r>  0.0230  0.0987  0.0850  0.0218  0.0000  0.0000  0.0000  0.0000  0.0000 </r>
        <r>  0.0230  0.0987  0.0850  0.0218  0.0000  0.0000  0.0000  0.0000  0.0000 </r>
       </set>
       <set comment="band 6">
        <r>  0.0575  0.0625  0.1309  0.0199  0.0000  0.0000  0.0000  0.0000  0.0000 </r>
        <r>  0.0575  0.0625  0.1309  0.0199  0.0000  0.0000  0.0000  0.0000  0.0000 </r>
       </set>
       <set comment="band 7">
        <r>  0.1127  0.0883  0.0100  0.1134  0.0000  0.0000  0.0000  0.0000  0.0000 </r>
        <r>  0.1127  0.0883  0.0100  0.1134  0.0000  0.0000  0.0000  0.0000  0.0000 </r>
       </set>
       <set comment="band 8">
        <r>  0.0601  0.0652  0.1144  0.1125  0.0000  0.0000  0.0000  0.0000  0.0000 </r>
        <r>  0.0601  0.0652  0.1144  0.1125  0.0000  0.0000  0.0000  0.0000  0.0000 </r>
       </set>
      </set>
      <set comment="kpoint 119">
       <set comment="band 1">
        <r>  0.2403  0.0226  0.0106  0.0644  0.0000  0.0000  0.0000  0.0000  0.0000 </r>
        <r>  0.2403  0.0226  0.0106  0.0644  0.0000  0.0000  0.0000  0.0000  0.0000 </r>
       </set>
       <set comment="band 2">
        <r>  0.2269  0.0360  0.0217  0.0630  0.0000  0.0000  0.0000  0.0000  0.0000 </r>
        <r>  0.2269  0.0360  0.0217  0.0630  0.0000  0.0000  0.0000  0.0000  0.0000 </r>
       </set>
       <set comment="band 3">
        <r>  0.0083  0.0494  0.1231  0.1133  0.0000  0.0000  0.0000  0.0000  0.0000 </r>
        <r>  0.0083  0.0494  0.1231  0.1133  0.0000  0.0000  0.0000  0.0000  0.0000 </r>
       </set>
       <set comment="band 4">
        <r>  0.0000  0.1624  0.1160  0.0187  0.0000  0.0000  0.0000  0.0000  0.0000 </r>
        <r>  0.0000  0.1624  0.1160  0.0187  0.0000  0.0000  0.0000  0.0000  0.0000 </r>
       </set>
       <set comment="band 5">
        <r>  0.0596  0.1185  0.0565  0.0117  0.0000  0.0000  0.0000  0.0000  0.0000 </r>
        <r>  0.0596  0.1185  0.0565  0.0117  0.0000  0.0000  0.0000  0.0000  0.0000 </r>
       </set>
       <set comment="band 6">
        <r>  0.0482  0.0067  0.0621  0.1046  0.0000  0.0000  0.0000  0.0000  0.0000 </r>
        <r>  0.0482  0.0067  0.0621  0.1046  0.0000  0.0000  0.0000  0.0000  0.0000 </r>
       </set>
       <set comment="band 7">
        <r>  0.0873  0.1214  0.1028  0.0255  0.0000  0.0000  0.0000  0.0000  0.0000 </r>
        <r>  0.0873  0.1214  0.1028  0.0255  0.0000  0.0000  0.0000  0.0000  0.0000 </r>
       </set>
       <set comment="band 8">
        <r>  0.0529  0.0577  0.1346  0.1105  0.0000  0.0000  0.0000  0.0000  0.0000 </r>
        <r>  0.0529  0.0577  0.1346  0.1105  0.0000  0.0000  0.0000  0.0000  0.0000 </r>
       </set>
      </set>
      <set comment="kpoint 120">
       <set comment="band 1">
        <r>  0.2495  0.0374  0.0167  0.0414  0.0000  0.0000  0.0000  0.0000  0.0000 </r>
        <r>  0.2495  0.0374  0.0167  0.0414  0.0000  0.0000  0.0000  0.0000  0.0000 </r>
       </set>
       <set comment="band 2">
        <r>  0.2248  0.0468  0.0110  0.0621  0.0000  0.0000  0.0000  0.0000  0.0000 </r>
        <r>  0.2248  0.0468  0.0110  0.0621  0.0000  0.0000  0.0000  0.0000  0.0000 </r>
       </set>
       <set comment="band 3">
        <r>  0.0009  0.1574  0.0024  0.1240  0.0000  0.0000  0.0000  0.0000  0.0000 </r>
        <r>  0.0009  0.1574  0.0024  0.1240  0.0000  0.0000  0.0000  0.0000  0.0000 </r>
       </set>
       <set comment="band 4">
        <r>  0.0032  0.0173  0.2446  0.0339  0.0000  0.0000  0.0000  0.0000  0.0000 </r>
        <r>  0.0032  0.0173  0.2446  0.0339  0.0000  0.0000  0.0000  0.0000  0.0000 </r>
       </set>
       <set comment="band 5">
        <r>  0.0383  0.0502  0.0888  0.0535  0.0000  0.0000  0.0000  0.0000  0.0000 </r>
        <r>  0.0383  0.0502  0.0888  0.0535  0.0000  0.0000  0.0000  0.0000  0.0000 </r>
       </set>
       <set comment="band 6">
        <r>  0.0004  0.0485  0.1565  0.0293  0.0000  0.0000  0.0000  0.0000  0.0000 </r>
        <r>  0.0004  0.0485  0.1565  0.0293  0.0000  0.0000  0.0000  0.0000  0.0000 </r>
       </set>
       <set comment="band 7">
        <r>  0.1112  0.0757  0.0736  0.0926  0.0000  0.0000  0.0000  0.0000  0.0000 </r>
        <r>  0.1112  0.0757  0.0736  0.0926  0.0000  0.0000  0.0000  0.0000  0.0000 </r>
       </set>
       <set comment="band 8">
        <r>  0.1016  0.1310  0.0042  0.0933  0.0000  0.0000  0.0000  0.0000  0.0000 </r>
        <r>  0.1016  0.1310  0.0042  0.0933  0.0000  0.0000  0.0000  0.0000  0.0000 </r>
       </set>
      </set>
     </set>
    </set>
   </array>
  </projected>
 </calculation>
 <structure name="finalpos" >
  <crystal>
   <varray name="basis" >
    <v>       2.18050236       0.00000000       1.25891346 </v>
    <v>       0.72683412       2.05579703       1.25891346 </v>
    <v>       0.00000000       0.00000000       2.51782692 </v>
   </varray>
   <i name="volume">     11.28658789 </i>
   <varray name="rec_basis" >
    <v>       0.45860991      -0.16214311       0.00000000 </v>
    <v>       0.00000000       0.48642934       0.00000000 </v>
    <v>      -0.22930496      -0.16214311       0.39716789 </v>
   </varray>
  </crystal>
  <varray name="positions" >
   <v>       0.87500000       0.87500000       0.87500000 </v>
   <v>       0.12500000       0.12500000       0.12500000 </v>
  </varray>
 </structure>
</modeling>
