    2    2    1    1
  0.1173577E+02  0.3213800E-09  0.3213800E-09  0.3213800E-09  0.5000000E-15
  1.000000000000000E-004
  CAR 
 unknown system                          
     18     10     16
 
  0.0000000E+00  0.0000000E+00  0.0000000E+00  0.8000000E-02
    1      -10.717683
    2       -8.405299
    3       -8.405298
    4       -8.405298
    5       -8.111659
    6       -8.111659
    7        5.026134
    8        5.026128
    9        5.026136
   10        6.564175
   11       15.149664
   12       15.149671
   13       15.149673
   14       22.265033
   15       23.673855
   16       23.674945
 
  0.2000000E+00  0.0000000E+00  0.0000000E+00  0.6400000E-01
    1      -10.354097
    2       -8.363576
    3       -8.363576
    4       -8.197438
    5       -8.111714
    6       -8.111714
    7        2.123386
    8        4.663730
    9        4.663732
   10        8.520536
   11       13.889470
   12       15.568927
   13       15.568934
   14       21.262156
   15       21.631823
   16       21.631825
 
  0.4000000E+00  0.0000000E+00  0.0000000E+00  0.6400000E-01
    1       -9.931430
    2       -8.326669
    3       -8.326669
    4       -8.077844
    5       -8.077843
    6       -7.207592
    7       -1.213830
    8        4.161188
    9        4.161184
   10        9.429043
   11       13.563789
   12       15.348232
   13       15.348236
   14       20.385320
   15       23.426302
   16       23.426311
 
  0.2000000E+00  0.2000000E+00  0.0000000E+00  0.4800000E-01
    1      -10.243187
    2       -8.315829
    3       -8.315829
    4       -8.253017
    5       -8.087046
    6       -8.074435
    7        2.348856
    8        3.986547
    9        3.986550
   10        9.136896
   11       12.822907
   12       16.288778
   13       16.288776
   14       17.430373
   15       25.640105
   16       26.239913
 
  0.4000000E+00  0.2000000E+00  0.0000000E+00  0.1920000E+00
    1       -9.891470
    2       -8.300707
    3       -8.257149
    4       -8.185253
    5       -8.063316
    6       -7.312463
    7       -0.078321
    8        2.982069
    9        3.416468
   10       10.195948
   11       12.475740
   12       14.987637
   13       16.685068
   14       19.005900
   15       25.015004
   16       25.639924
 
 -0.4000000E+00  0.2000000E+00  0.0000000E+00  0.1920000E+00
    1       -9.813271
    2       -8.313881
    3       -8.258473
    4       -8.120362
    5       -8.086010
    6       -6.640633
    7       -1.278862
    8        2.106991
    9        3.659605
   10       11.045604
   11       12.273522
   12       15.071529
   13       16.274425
   14       20.938447
   15       23.418090
   16       25.003962
 
 -0.2000000E+00  0.2000000E+00  0.0000000E+00  0.9600000E-01
    1      -10.004618
    2       -8.322463
    3       -8.309108
    4       -8.131819
    5       -8.119017
    6       -7.630080
    7        0.602555
    8        2.725554
    9        4.418846
   10       10.313995
   11       13.230968
   12       14.390839
   13       16.027581
   14       20.330120
   15       22.127494
   16       25.259184
 
  0.4000000E+00  0.4000000E+00  0.0000000E+00  0.4800000E-01
    1       -9.774502
    2       -8.306661
    3       -8.154524
    4       -8.154524
    5       -8.047423
    6       -6.860555
    7       -0.428912
    8        2.606583
    9        2.606582
   10        8.701595
   11       11.640465
   12       16.260266
   13       18.297839
   14       18.297843
   15       26.689524
   16       28.324098
 
 -0.4000000E+00  0.4000000E+00  0.0000000E+00  0.9600000E-01
    1       -9.739527
    2       -8.299127
    3       -8.165579
    4       -8.153209
    5       -8.064477
    6       -6.306509
    7       -0.812635
    8        1.173599
    9        2.734051
   10        9.536198
   11       12.444060
   12       16.199732
   13       17.966285
   14       18.180129
   15       26.381756
   16       27.316059
 
 -0.4000000E+00  0.4000000E+00  0.2000000E+00  0.1920000E+00
    1       -9.760696
    2       -8.275880
    3       -8.244449
    4       -8.131671
    5       -8.085117
    6       -6.463431
    7       -0.602811
    8        1.397027
    9        2.484569
   10       11.071914
   11       12.695129
   12       14.580771
   13       17.000378
   14       19.665408
   15       24.227360
   16       27.711529
