PROCAR lm decomposed
# of k-points:   10         # of bands:  16         # of ions:   2

 k-point    1 :    0.00000000 0.00000000 0.00000000     weight = 0.00800000

band   1 # energy  -10.71768321 # occ.  2.00000000
 
ion      s     py     pz     px    dxy    dyz    dz2    dxz    dx2    tot
  1  0.219  0.000  0.000  0.000  0.000  0.000  0.000  0.000  0.000  0.219
  2  0.453  0.000  0.000  0.000  0.000  0.000  0.000  0.000  0.000  0.453
tot  0.672  0.000  0.000  0.000  0.000  0.000  0.000  0.000  0.000  0.672
 
band   2 # energy   -8.40529850 # occ.  2.00000000
 
ion      s     py     pz     px    dxy    dyz    dz2    dxz    dx2    tot
  1  0.000  0.000  0.000  0.000  0.014  0.622  0.000  0.331  0.000  0.967
  2  0.000  0.005  0.000  0.010  0.000  0.000  0.000  0.000  0.000  0.016
tot  0.000  0.005  0.000  0.010  0.014  0.622  0.000  0.331  0.000  0.983
 
band   3 # energy   -8.40529826 # occ.  2.00000000
 
ion      s     py     pz     px    dxy    dyz    dz2    dxz    dx2    tot
  1  0.000  0.000  0.000  0.000  0.299  0.187  0.000  0.481  0.000  0.967
  2  0.000  0.008  0.005  0.003  0.000  0.000  0.000  0.000  0.000  0.016
tot  0.000  0.008  0.005  0.003  0.299  0.187  0.000  0.481  0.000  0.983
 
band   4 # energy   -8.40529811 # occ.  2.00000000
 
ion      s     py     pz     px    dxy    dyz    dz2    dxz    dx2    tot
  1  0.000  0.000  0.000  0.000  0.654  0.158  0.000  0.155  0.000  0.967
  2  0.000  0.002  0.011  0.003  0.000  0.000  0.000  0.000  0.000  0.016
tot  0.000  0.003  0.011  0.003  0.654  0.158  0.000  0.155  0.000  0.983
 
band   5 # energy   -8.11165912 # occ.  2.00000000
 
ion      s     py     pz     px    dxy    dyz    dz2    dxz    dx2    tot
  1  0.000  0.000  0.000  0.000  0.000  0.000  0.249  0.000  0.743  0.991
  2  0.000  0.000  0.000  0.000  0.000  0.000  0.000  0.000  0.000  0.000
tot  0.000  0.000  0.000  0.000  0.000  0.000  0.249  0.000  0.743  0.991
 
band   6 # energy   -8.11165907 # occ.  2.00000000
 
ion      s     py     pz     px    dxy    dyz    dz2    dxz    dx2    tot
  1  0.000  0.000  0.000  0.000  0.000  0.000  0.743  0.000  0.249  0.991
  2  0.000  0.000  0.000  0.000  0.000  0.000  0.000  0.000  0.000  0.000
tot  0.000  0.000  0.000  0.000  0.000  0.000  0.743  0.000  0.249  0.991
 
band   7 # energy    5.02613443 # occ.  1.99998425
 
ion      s     py     pz     px    dxy    dyz    dz2    dxz    dx2    tot
  1  0.000  0.011  0.009  0.025  0.024  0.070  0.000  0.032  0.000  0.171
  2  0.000  0.152  0.113  0.331  0.000  0.000  0.000  0.000  0.000  0.596
tot  0.000  0.163  0.122  0.356  0.024  0.070  0.000  0.032  0.000  0.767
 
band   8 # energy    5.02612794 # occ.  2.00004121
 
ion      s     py     pz     px    dxy    dyz    dz2    dxz    dx2    tot
  1  0.000  0.028  0.003  0.014  0.008  0.040  0.000  0.078  0.000  0.171
  2  0.000  0.368  0.037  0.191  0.000  0.000  0.000  0.000  0.000  0.596
tot  0.000  0.396  0.040  0.206  0.008  0.040  0.000  0.078  0.000  0.767
 
band   9 # energy    5.02613553 # occ.  1.99997454
 
ion      s     py     pz     px    dxy    dyz    dz2    dxz    dx2    tot
  1  0.000  0.006  0.034  0.006  0.094  0.016  0.000  0.016  0.000  0.171
  2  0.000  0.076  0.446  0.074  0.000  0.000  0.000  0.000  0.000  0.596
tot  0.000  0.082  0.480  0.079  0.094  0.016  0.000  0.016  0.000  0.767
 
band  10 # energy    6.56417494 # occ.  0.00000000
 
ion      s     py     pz     px    dxy    dyz    dz2    dxz    dx2    tot
  1  0.276  0.000  0.000  0.000  0.000  0.000  0.000  0.000  0.000  0.276
  2  0.355  0.000  0.000  0.000  0.000  0.000  0.000  0.000  0.000  0.355
tot  0.631  0.000  0.000  0.000  0.000  0.000  0.000  0.000  0.000  0.631
 
band  11 # energy   15.14966381 # occ.  0.00000000
 
ion      s     py     pz     px    dxy    dyz    dz2    dxz    dx2    tot
  1  0.000  0.260  0.182  0.274  0.002  0.002  0.000  0.002  0.000  0.723
  2  0.000  0.002  0.001  0.002  0.000  0.000  0.000  0.000  0.000  0.005
tot  0.000  0.262  0.184  0.276  0.002  0.002  0.000  0.002  0.000  0.728
 
band  12 # energy   15.14967144 # occ.  0.00000000
 
ion      s     py     pz     px    dxy    dyz    dz2    dxz    dx2    tot
  1  0.000  0.099  0.329  0.289  0.003  0.003  0.000  0.001  0.000  0.723
  2  0.000  0.001  0.002  0.002  0.000  0.000  0.000  0.000  0.000  0.005
tot  0.000  0.100  0.331  0.291  0.003  0.003  0.000  0.001  0.000  0.728
 
band  13 # energy   15.14967258 # occ.  0.00000000
 
ion      s     py     pz     px    dxy    dyz    dz2    dxz    dx2    tot
  1  0.000  0.357  0.205  0.154  0.002  0.001  0.000  0.003  0.000  0.723
  2  0.000  0.002  0.001  0.001  0.000  0.000  0.000  0.000  0.000  0.005
tot  0.000  0.359  0.207  0.155  0.002  0.001  0.000  0.003  0.000  0.728
 
band  14 # energy   22.26503316 # occ.  0.00000000
 
ion      s     py     pz     px    dxy    dyz    dz2    dxz    dx2    tot
  1  0.430  0.000  0.000  0.000  0.000  0.000  0.000  0.000  0.000  0.430
  2  0.000  0.000  0.000  0.000  0.000  0.000  0.000  0.000  0.000  0.000
tot  0.430  0.000  0.000  0.000  0.000  0.000  0.000  0.000  0.000  0.430
 
band  15 # energy   23.67385536 # occ.  0.00000000
 
ion      s     py     pz     px    dxy    dyz    dz2    dxz    dx2    tot
  1  0.000  0.034  0.005  0.001  0.022  0.003  0.000  0.158  0.000  0.222
  2  0.000  0.026  0.004  0.001  0.000  0.000  0.000  0.000  0.000  0.030
tot  0.000  0.060  0.008  0.001  0.022  0.003  0.000  0.158  0.000  0.253
 
band  16 # energy   23.67494484 # occ.  0.00000000
 
ion      s     py     pz     px    dxy    dyz    dz2    dxz    dx2    tot
  1  0.000  0.000  0.004  0.035  0.021  0.160  0.000  0.002  0.000  0.223
  2  0.000  0.000  0.003  0.027  0.000  0.000  0.000  0.000  0.000  0.030
tot  0.000  0.001  0.008  0.061  0.021  0.160  0.000  0.002  0.000  0.253
 

 k-point    2 :    0.20000000 0.00000000 0.00000000     weight = 0.06400000

band   1 # energy  -10.35409714 # occ.  2.00000000
 
ion      s     py     pz     px    dxy    dyz    dz2    dxz    dx2    tot
  1  0.162  0.005  0.005  0.005  0.030  0.030  0.000  0.030  0.000  0.268
  2  0.446  0.000  0.000  0.000  0.000  0.000  0.000  0.000  0.000  0.447
tot  0.609  0.005  0.005  0.005  0.030  0.030  0.000  0.030  0.000  0.715
 
band   2 # energy   -8.36357607 # occ.  2.00000000
 
ion      s     py     pz     px    dxy    dyz    dz2    dxz    dx2    tot
  1  0.000  0.000  0.000  0.000  0.463  0.470  0.025  0.003  0.009  0.970
  2  0.000  0.000  0.007  0.007  0.000  0.000  0.000  0.000  0.000  0.014
tot  0.000  0.000  0.007  0.007  0.463  0.470  0.025  0.003  0.009  0.984
 
band   3 # energy   -8.36357584 # occ.  2.00000000
 
ion      s     py     pz     px    dxy    dyz    dz2    dxz    dx2    tot
  1  0.000  0.000  0.000  0.000  0.161  0.153  0.009  0.621  0.025  0.970
  2  0.000  0.009  0.002  0.002  0.000  0.000  0.000  0.000  0.000  0.014
tot  0.000  0.010  0.003  0.002  0.161  0.153  0.009  0.621  0.025  0.985
 
band   4 # energy   -8.19743790 # occ.  2.00000000
 
ion      s     py     pz     px    dxy    dyz    dz2    dxz    dx2    tot
  1  0.029  0.001  0.001  0.001  0.292  0.292  0.000  0.292  0.000  0.905
  2  0.027  0.005  0.005  0.005  0.000  0.000  0.000  0.000  0.000  0.043
tot  0.055  0.006  0.006  0.006  0.292  0.292  0.000  0.292  0.000  0.948
 
band   5 # energy   -8.11171394 # occ.  2.00000000
 
ion      s     py     pz     px    dxy    dyz    dz2    dxz    dx2    tot
  1  0.000  0.000  0.000  0.000  0.006  0.006  0.233  0.023  0.723  0.991
  2  0.000  0.000  0.000  0.000  0.000  0.000  0.000  0.000  0.000  0.000
tot  0.000  0.000  0.000  0.000  0.006  0.006  0.233  0.023  0.723  0.991
 
band   6 # energy   -8.11171376 # occ.  2.00000000
 
ion      s     py     pz     px    dxy    dyz    dz2    dxz    dx2    tot
  1  0.000  0.000  0.000  0.000  0.018  0.017  0.723  0.000  0.233  0.991
  2  0.000  0.000  0.000  0.000  0.000  0.000  0.000  0.000  0.000  0.000
tot  0.000  0.000  0.000  0.000  0.018  0.017  0.723  0.000  0.233  0.991
 
band   7 # energy    2.12338605 # occ.  2.00000000
 
ion      s     py     pz     px    dxy    dyz    dz2    dxz    dx2    tot
  1  0.126  0.024  0.024  0.024  0.029  0.029  0.000  0.029  0.000  0.287
  2  0.104  0.107  0.107  0.107  0.000  0.000  0.000  0.000  0.000  0.424
tot  0.230  0.131  0.131  0.131  0.029  0.029  0.000  0.029  0.000  0.711
 
band   8 # energy    4.66372964 # occ.  2.00000000
 
ion      s     py     pz     px    dxy    dyz    dz2    dxz    dx2    tot
  1  0.000  0.037  0.002  0.042  0.002  0.052  0.000  0.046  0.005  0.186
  2  0.000  0.266  0.012  0.296  0.000  0.000  0.000  0.000  0.000  0.573
tot  0.000  0.303  0.013  0.338  0.002  0.052  0.000  0.046  0.005  0.759
 
band   9 # energy    4.66373182 # occ.  2.00000000
 
ion      s     py     pz     px    dxy    dyz    dz2    dxz    dx2    tot
  1  0.000  0.016  0.052  0.012  0.065  0.015  0.005  0.020  0.000  0.186
  2  0.000  0.116  0.371  0.086  0.000  0.000  0.000  0.000  0.000  0.573
tot  0.000  0.133  0.423  0.098  0.065  0.015  0.005  0.020  0.000  0.759
 
band  10 # energy    8.52053595 # occ.  0.00000000
 
ion      s     py     pz     px    dxy    dyz    dz2    dxz    dx2    tot
  1  0.199  0.022  0.022  0.022  0.000  0.000  0.000  0.000  0.000  0.266
  2  0.213  0.059  0.059  0.059  0.000  0.000  0.000  0.000  0.000  0.390
tot  0.412  0.081  0.081  0.081  0.000  0.000  0.000  0.000  0.000  0.657
 
band  11 # energy   13.88946954 # occ.  0.00000000
 
ion      s     py     pz     px    dxy    dyz    dz2    dxz    dx2    tot
  1  0.139  0.106  0.106  0.106  0.009  0.009  0.000  0.009  0.000  0.483
  2  0.001  0.051  0.051  0.051  0.000  0.000  0.000  0.000  0.000  0.153
tot  0.139  0.157  0.157  0.157  0.009  0.009  0.000  0.009  0.000  0.636
 
band  12 # energy   15.56892700 # occ.  0.00000000
 
ion      s     py     pz     px    dxy    dyz    dz2    dxz    dx2    tot
  1  0.000  0.405  0.115  0.139  0.003  0.004  0.003  0.011  0.009  0.689
  2  0.000  0.021  0.006  0.007  0.000  0.000  0.000  0.000  0.000  0.035
tot  0.000  0.426  0.121  0.146  0.003  0.004  0.003  0.011  0.009  0.724
 
band  13 # energy   15.56893381 # occ.  0.00000000
 
ion      s     py     pz     px    dxy    dyz    dz2    dxz    dx2    tot
  1  0.000  0.034  0.324  0.300  0.009  0.008  0.009  0.001  0.003  0.689
  2  0.000  0.002  0.017  0.016  0.000  0.000  0.000  0.000  0.000  0.035
tot  0.000  0.036  0.341  0.316  0.009  0.008  0.009  0.001  0.003  0.724
 
band  14 # energy   21.26215572 # occ.  0.00000000
 
ion      s     py     pz     px    dxy    dyz    dz2    dxz    dx2    tot
  1  0.098  0.010  0.010  0.010  0.035  0.035  0.000  0.035  0.000  0.233
  2  0.016  0.000  0.000  0.000  0.000  0.000  0.000  0.000  0.000  0.016
tot  0.114  0.010  0.010  0.010  0.035  0.035  0.000  0.035  0.000  0.249
 
band  15 # energy   21.63182328 # occ.  0.00000000
 
ion      s     py     pz     px    dxy    dyz    dz2    dxz    dx2    tot
  1  0.000  0.028  0.010  0.005  0.023  0.012  0.071  0.063  0.134  0.346
  2  0.000  0.003  0.001  0.001  0.000  0.000  0.000  0.000  0.000  0.005
tot  0.000  0.031  0.011  0.006  0.023  0.012  0.071  0.063  0.134  0.351
 
band  16 # energy   21.63182484 # occ.  0.00000000
 
ion      s     py     pz     px    dxy    dyz    dz2    dxz    dx2    tot
  1  0.000  0.001  0.019  0.023  0.043  0.053  0.134  0.002  0.071  0.346
  2  0.000  0.000  0.002  0.003  0.000  0.000  0.000  0.000  0.000  0.005
tot  0.000  0.001  0.021  0.026  0.043  0.053  0.134  0.002  0.071  0.351
 

 k-point    3 :    0.40000000 0.00000000 0.00000000     weight = 0.06400000

band   1 # energy   -9.93142955 # occ.  2.00000000
 
ion      s     py     pz     px    dxy    dyz    dz2    dxz    dx2    tot
  1  0.055  0.009  0.009  0.009  0.124  0.124  0.000  0.124  0.000  0.455
  2  0.368  0.000  0.000  0.000  0.000  0.000  0.000  0.000  0.000  0.368
tot  0.423  0.009  0.009  0.009  0.124  0.124  0.000  0.124  0.000  0.823
 
band   2 # energy   -8.32666897 # occ.  2.00000000
 
ion      s     py     pz     px    dxy    dyz    dz2    dxz    dx2    tot
  1  0.000  0.000  0.000  0.000  0.298  0.301  0.133  0.151  0.090  0.973
  2  0.000  0.002  0.005  0.005  0.000  0.000  0.000  0.000  0.000  0.012
tot  0.000  0.002  0.005  0.005  0.298  0.301  0.133  0.151  0.090  0.985
 
band   3 # energy   -8.32666868 # occ.  2.00000000
 
ion      s     py     pz     px    dxy    dyz    dz2    dxz    dx2    tot
  1  0.000  0.000  0.000  0.000  0.202  0.199  0.090  0.349  0.133  0.973
  2  0.000  0.005  0.003  0.003  0.000  0.000  0.000  0.000  0.000  0.012
tot  0.000  0.006  0.003  0.003  0.202  0.199  0.090  0.349  0.133  0.985
 
band   4 # energy   -8.07784390 # occ.  2.00000000
 
ion      s     py     pz     px    dxy    dyz    dz2    dxz    dx2    tot
  1  0.000  0.000  0.000  0.000  0.066  0.021  0.332  0.141  0.434  0.993
  2  0.000  0.000  0.000  0.000  0.000  0.000  0.000  0.000  0.000  0.000
tot  0.000  0.000  0.000  0.000  0.066  0.021  0.332  0.141  0.434  0.993
 
band   5 # energy   -8.07784349 # occ.  2.00000000
 
ion      s     py     pz     px    dxy    dyz    dz2    dxz    dx2    tot
  1  0.000  0.000  0.000  0.000  0.086  0.130  0.434  0.011  0.332  0.993
  2  0.000  0.000  0.000  0.000  0.000  0.000  0.000  0.000  0.000  0.000
tot  0.000  0.000  0.000  0.000  0.086  0.130  0.434  0.011  0.332  0.993
 
band   6 # energy   -7.20759193 # occ.  2.00000000
 
ion      s     py     pz     px    dxy    dyz    dz2    dxz    dx2    tot
  1  0.051  0.008  0.008  0.008  0.206  0.206  0.000  0.206  0.000  0.694
  2  0.180  0.003  0.003  0.003  0.000  0.000  0.000  0.000  0.000  0.188
tot  0.232  0.011  0.011  0.011  0.206  0.206  0.000  0.206  0.000  0.882
 
band   7 # energy   -1.21383049 # occ.  2.00000000
 
ion      s     py     pz     px    dxy    dyz    dz2    dxz    dx2    tot
  1  0.221  0.034  0.034  0.034  0.010  0.010  0.000  0.010  0.000  0.352
  2  0.037  0.083  0.083  0.083  0.000  0.000  0.000  0.000  0.000  0.286
tot  0.258  0.117  0.117  0.117  0.010  0.010  0.000  0.010  0.000  0.638
 
band   8 # energy    4.16118774 # occ.  2.00000000
 
ion      s     py     pz     px    dxy    dyz    dz2    dxz    dx2    tot
  1  0.000  0.070  0.038  0.016  0.019  0.008  0.006  0.036  0.007  0.200
  2  0.000  0.310  0.167  0.069  0.000  0.000  0.000  0.000  0.000  0.546
tot  0.000  0.380  0.205  0.085  0.019  0.008  0.006  0.036  0.007  0.747
 
band   9 # energy    4.16118408 # occ.  2.00000000
 
ion      s     py     pz     px    dxy    dyz    dz2    dxz    dx2    tot
  1  0.000  0.012  0.045  0.067  0.023  0.034  0.007  0.006  0.006  0.200
  2  0.000  0.054  0.197  0.295  0.000  0.000  0.000  0.000  0.000  0.546
tot  0.000  0.067  0.241  0.362  0.023  0.034  0.007  0.006  0.006  0.747
 
band  10 # energy    9.42904333 # occ.  0.00000000
 
ion      s     py     pz     px    dxy    dyz    dz2    dxz    dx2    tot
  1  0.335  0.028  0.028  0.028  0.005  0.005  0.000  0.005  0.000  0.435
  2  0.179  0.014  0.014  0.014  0.000  0.000  0.000  0.000  0.000  0.222
tot  0.514  0.043  0.043  0.043  0.005  0.005  0.000  0.005  0.000  0.657
 
band  11 # energy   13.56378884 # occ.  0.00000000
 
ion      s     py     pz     px    dxy    dyz    dz2    dxz    dx2    tot
  1  0.040  0.027  0.027  0.027  0.018  0.018  0.000  0.018  0.000  0.173
  2  0.002  0.133  0.133  0.133  0.000  0.000  0.000  0.000  0.000  0.402
tot  0.042  0.160  0.160  0.160  0.018  0.018  0.000  0.018  0.000  0.575
 
band  12 # energy   15.34823176 # occ.  0.00000000
 
ion      s     py     pz     px    dxy    dyz    dz2    dxz    dx2    tot
  1  0.000  0.309  0.059  0.121  0.005  0.011  0.011  0.029  0.048  0.593
  2  0.000  0.023  0.004  0.009  0.000  0.000  0.000  0.000  0.000  0.036
tot  0.000  0.332  0.063  0.130  0.005  0.011  0.011  0.029  0.048  0.629
 
band  13 # energy   15.34823632 # occ.  0.00000000
 
ion      s     py     pz     px    dxy    dyz    dz2    dxz    dx2    tot
  1  0.000  0.017  0.268  0.205  0.025  0.019  0.048  0.002  0.011  0.593
  2  0.000  0.001  0.020  0.015  0.000  0.000  0.000  0.000  0.000  0.036
tot  0.000  0.018  0.287  0.220  0.025  0.019  0.048  0.002  0.011  0.629
 
band  14 # energy   20.38531975 # occ.  0.00000000
 
ion      s     py     pz     px    dxy    dyz    dz2    dxz    dx2    tot
  1  0.163  0.003  0.003  0.003  0.021  0.021  0.000  0.021  0.000  0.235
  2  0.008  0.018  0.018  0.018  0.000  0.000  0.000  0.000  0.000  0.061
tot  0.171  0.021  0.021  0.021  0.021  0.021  0.000  0.021  0.000  0.296
 
band  15 # energy   23.42630173 # occ.  0.00000000
 
ion      s     py     pz     px    dxy    dyz    dz2    dxz    dx2    tot
  1  0.000  0.132  0.035  0.031  0.008  0.007  0.049  0.029  0.135  0.425
  2  0.000  0.056  0.015  0.013  0.000  0.000  0.000  0.000  0.000  0.083
tot  0.000  0.187  0.050  0.044  0.008  0.007  0.049  0.029  0.135  0.509
 
band  16 # energy   23.42631061 # occ.  0.00000000
 
ion      s     py     pz     px    dxy    dyz    dz2    dxz    dx2    tot
  1  0.000  0.000  0.097  0.101  0.021  0.022  0.135  0.000  0.049  0.425
  2  0.000  0.000  0.041  0.042  0.000  0.000  0.000  0.000  0.000  0.083
tot  0.000  0.000  0.138  0.143  0.021  0.022  0.135  0.000  0.049  0.509
 

 k-point    4 :    0.20000000 0.20000000 0.00000000     weight = 0.04800000

band   1 # energy  -10.24318717 # occ.  2.00000000
 
ion      s     py     pz     px    dxy    dyz    dz2    dxz    dx2    tot
  1  0.142  0.000  0.000  0.020  0.000  0.128  0.000  0.000  0.001  0.290
  2  0.441  0.000  0.000  0.000  0.000  0.000  0.000  0.000  0.000  0.442
tot  0.583  0.000  0.000  0.020  0.000  0.128  0.000  0.000  0.001  0.732
 
band   2 # energy   -8.31582923 # occ.  2.00000000
 
ion      s     py     pz     px    dxy    dyz    dz2    dxz    dx2    tot
  1  0.000  0.001  0.000  0.000  0.586  0.000  0.000  0.386  0.000  0.973
  2  0.000  0.002  0.011  0.000  0.000  0.000  0.000  0.000  0.000  0.013
tot  0.000  0.003  0.011  0.000  0.586  0.000  0.000  0.386  0.000  0.986
 
band   3 # energy   -8.31582886 # occ.  2.00000000
 
ion      s     py     pz     px    dxy    dyz    dz2    dxz    dx2    tot
  1  0.000  0.000  0.001  0.000  0.386  0.000  0.000  0.586  0.000  0.973
  2  0.000  0.011  0.002  0.000  0.000  0.000  0.000  0.000  0.000  0.013
tot  0.000  0.011  0.003  0.000  0.386  0.000  0.000  0.586  0.000  0.986
 
band   4 # energy   -8.25301727 # occ.  2.00000000
 
ion      s     py     pz     px    dxy    dyz    dz2    dxz    dx2    tot
  1  0.019  0.000  0.000  0.001  0.000  0.432  0.120  0.000  0.360  0.931
  2  0.014  0.000  0.000  0.014  0.000  0.000  0.000  0.000  0.000  0.028
tot  0.032  0.000  0.000  0.015  0.000  0.432  0.120  0.000  0.360  0.959
 
band   5 # energy   -8.08704560 # occ.  2.00000000
 
ion      s     py     pz     px    dxy    dyz    dz2    dxz    dx2    tot
  1  0.000  0.000  0.000  0.000  0.000  0.000  0.744  0.000  0.248  0.992
  2  0.000  0.000  0.000  0.000  0.000  0.000  0.000  0.000  0.000  0.000
tot  0.000  0.000  0.000  0.000  0.000  0.000  0.744  0.000  0.248  0.992
 
band   6 # energy   -8.07443507 # occ.  2.00000000
 
ion      s     py     pz     px    dxy    dyz    dz2    dxz    dx2    tot
  1  0.020  0.000  0.000  0.002  0.000  0.405  0.126  0.000  0.379  0.932
  2  0.026  0.000  0.000  0.004  0.000  0.000  0.000  0.000  0.000  0.030
tot  0.046  0.000  0.000  0.006  0.000  0.405  0.126  0.000  0.379  0.962
 
band   7 # energy    2.34885632 # occ.  2.00000000
 
ion      s     py     pz     px    dxy    dyz    dz2    dxz    dx2    tot
  1  0.170  0.000  0.000  0.023  0.000  0.094  0.003  0.000  0.008  0.298
  2  0.132  0.000  0.000  0.311  0.000  0.000  0.000  0.000  0.000  0.443
tot  0.302  0.000  0.000  0.334  0.000  0.094  0.003  0.000  0.008  0.741
 
band   8 # energy    3.98654690 # occ.  2.00000000
 
ion      s     py     pz     px    dxy    dyz    dz2    dxz    dx2    tot
  1  0.000  0.025  0.103  0.000  0.066  0.000  0.000  0.017  0.000  0.211
  2  0.000  0.232  0.290  0.000  0.000  0.000  0.000  0.000  0.000  0.521
tot  0.000  0.257  0.393  0.000  0.066  0.000  0.000  0.017  0.000  0.733
 
band   9 # energy    3.98655029 # occ.  2.00000000
 
ion      s     py     pz     px    dxy    dyz    dz2    dxz    dx2    tot
  1  0.000  0.103  0.025  0.000  0.017  0.000  0.000  0.066  0.000  0.212
  2  0.000  0.289  0.232  0.000  0.000  0.000  0.000  0.000  0.000  0.521
tot  0.000  0.393  0.257  0.000  0.017  0.000  0.000  0.066  0.000  0.733
 
band  10 # energy    9.13689586 # occ.  0.00000000
 
ion      s     py     pz     px    dxy    dyz    dz2    dxz    dx2    tot
  1  0.110  0.000  0.000  0.088  0.000  0.000  0.002  0.000  0.006  0.206
  2  0.165  0.000  0.000  0.263  0.000  0.000  0.000  0.000  0.000  0.427
tot  0.275  0.000  0.000  0.350  0.000  0.000  0.002  0.000  0.006  0.633
 
band  11 # energy   12.82290664 # occ.  0.00000000
 
ion      s     py     pz     px    dxy    dyz    dz2    dxz    dx2    tot
  1  0.256  0.000  0.000  0.363  0.000  0.028  0.002  0.000  0.005  0.653
  2  0.000  0.000  0.000  0.033  0.000  0.000  0.000  0.000  0.000  0.034
tot  0.256  0.000  0.000  0.396  0.000  0.028  0.002  0.000  0.005  0.686
 
band  12 # energy   16.28877778 # occ.  0.00000000
 
ion      s     py     pz     px    dxy    dyz    dz2    dxz    dx2    tot
  1  0.000  0.563  0.007  0.000  0.006  0.000  0.000  0.017  0.000  0.593
  2  0.000  0.000  0.126  0.000  0.000  0.000  0.000  0.000  0.000  0.127
tot  0.000  0.564  0.133  0.000  0.006  0.000  0.000  0.017  0.000  0.720
 
band  13 # energy   16.28877578 # occ.  0.00000000
 
ion      s     py     pz     px    dxy    dyz    dz2    dxz    dx2    tot
  1  0.000  0.007  0.563  0.000  0.017  0.000  0.000  0.006  0.000  0.593
  2  0.000  0.126  0.000  0.000  0.000  0.000  0.000  0.000  0.000  0.127
tot  0.000  0.133  0.564  0.000  0.017  0.000  0.000  0.006  0.000  0.720
 
band  14 # energy   17.43037300 # occ.  0.00000000
 
ion      s     py     pz     px    dxy    dyz    dz2    dxz    dx2    tot
  1  0.000  0.000  0.000  0.009  0.000  0.100  0.032  0.000  0.097  0.238
  2  0.014  0.000  0.000  0.018  0.000  0.000  0.000  0.000  0.000  0.032
tot  0.014  0.000  0.000  0.027  0.000  0.100  0.032  0.000  0.097  0.270
 
band  15 # energy   25.64010544 # occ.  0.00000000
 
ion      s     py     pz     px    dxy    dyz    dz2    dxz    dx2    tot
  1  0.000  0.000  0.000  0.000  0.000  0.000  0.326  0.000  0.109  0.434
  2  0.000  0.000  0.000  0.000  0.000  0.000  0.000  0.000  0.000  0.000
tot  0.000  0.000  0.000  0.000  0.000  0.000  0.326  0.000  0.109  0.434
 
band  16 # energy   26.23991332 # occ.  0.00000000
 
ion      s     py     pz     px    dxy    dyz    dz2    dxz    dx2    tot
  1  0.190  0.006  0.013  0.250  0.028  0.018  0.001  0.016  0.004  0.528
  2  0.015  0.002  0.001  0.016  0.000  0.000  0.000  0.000  0.000  0.034
tot  0.205  0.008  0.014  0.266  0.028  0.018  0.001  0.016  0.004  0.562
 

 k-point    5 :    0.40000000 0.20000000 0.00000000     weight = 0.19200000

band   1 # energy   -9.89146972 # occ.  2.00000000
 
ion      s     py     pz     px    dxy    dyz    dz2    dxz    dx2    tot
  1  0.049  0.003  0.003  0.023  0.050  0.275  0.000  0.050  0.001  0.454
  2  0.370  0.000  0.000  0.000  0.000  0.000  0.000  0.000  0.000  0.370
tot  0.419  0.003  0.003  0.023  0.050  0.275  0.000  0.050  0.001  0.825
 
band   2 # energy   -8.30070668 # occ.  2.00000000
 
ion      s     py     pz     px    dxy    dyz    dz2    dxz    dx2    tot
  1  0.001  0.000  0.000  0.000  0.228  0.238  0.069  0.228  0.206  0.971
  2  0.001  0.003  0.003  0.006  0.000  0.000  0.000  0.000  0.000  0.012
tot  0.002  0.003  0.003  0.006  0.228  0.238  0.069  0.228  0.206  0.983
 
band   3 # energy   -8.25714881 # occ.  2.00000000
 
ion      s     py     pz     px    dxy    dyz    dz2    dxz    dx2    tot
  1  0.000  0.000  0.000  0.000  0.424  0.000  0.097  0.424  0.032  0.978
  2  0.000  0.005  0.005  0.000  0.000  0.000  0.000  0.000  0.000  0.010
tot  0.000  0.005  0.005  0.000  0.424  0.000  0.097  0.424  0.032  0.988
 
band   4 # energy   -8.18525343 # occ.  2.00000000
 
ion      s     py     pz     px    dxy    dyz    dz2    dxz    dx2    tot
  1  0.002  0.000  0.000  0.000  0.106  0.085  0.170  0.106  0.510  0.980
  2  0.001  0.001  0.001  0.001  0.000  0.000  0.000  0.000  0.000  0.004
tot  0.003  0.001  0.001  0.002  0.106  0.085  0.170  0.106  0.510  0.984
 
band   5 # energy   -8.06331550 # occ.  2.00000000
 
ion      s     py     pz     px    dxy    dyz    dz2    dxz    dx2    tot
  1  0.000  0.000  0.000  0.000  0.066  0.000  0.647  0.066  0.216  0.994
  2  0.000  0.000  0.000  0.000  0.000  0.000  0.000  0.000  0.000  0.000
tot  0.000  0.000  0.000  0.000  0.066  0.000  0.647  0.066  0.216  0.994
 
band   6 # energy   -7.31246336 # occ.  2.00000000
 
ion      s     py     pz     px    dxy    dyz    dz2    dxz    dx2    tot
  1  0.059  0.002  0.002  0.018  0.108  0.377  0.006  0.108  0.018  0.699
  2  0.167  0.001  0.001  0.010  0.000  0.000  0.000  0.000  0.000  0.178
tot  0.226  0.003  0.003  0.028  0.108  0.377  0.006  0.108  0.018  0.878
 
band   7 # energy   -0.07832057 # occ.  2.00000000
 
ion      s     py     pz     px    dxy    dyz    dz2    dxz    dx2    tot
  1  0.225  0.032  0.032  0.009  0.006  0.038  0.002  0.006  0.005  0.356
  2  0.071  0.056  0.056  0.155  0.000  0.000  0.000  0.000  0.000  0.338
tot  0.296  0.088  0.088  0.164  0.006  0.038  0.002  0.006  0.005  0.694
 
band   8 # energy    2.98206889 # occ.  2.00000000
 
ion      s     py     pz     px    dxy    dyz    dz2    dxz    dx2    tot
  1  0.052  0.041  0.041  0.058  0.012  0.020  0.005  0.012  0.014  0.254
  2  0.014  0.137  0.137  0.164  0.000  0.000  0.000  0.000  0.000  0.450
tot  0.066  0.178  0.178  0.222  0.012  0.020  0.005  0.012  0.014  0.704
 
band   9 # energy    3.41646795 # occ.  2.00000000
 
ion      s     py     pz     px    dxy    dyz    dz2    dxz    dx2    tot
  1  0.000  0.083  0.083  0.000  0.025  0.000  0.004  0.025  0.001  0.221
  2  0.000  0.248  0.248  0.000  0.000  0.000  0.000  0.000  0.000  0.496
tot  0.000  0.331  0.331  0.000  0.025  0.000  0.004  0.025  0.001  0.717
 
band  10 # energy   10.19594843 # occ.  0.00000000
 
ion      s     py     pz     px    dxy    dyz    dz2    dxz    dx2    tot
  1  0.105  0.005  0.005  0.144  0.003  0.026  0.003  0.003  0.010  0.303
  2  0.109  0.008  0.008  0.150  0.000  0.000  0.000  0.000  0.000  0.276
tot  0.214  0.013  0.013  0.295  0.003  0.026  0.003  0.003  0.010  0.578
 
band  11 # energy   12.47574035 # occ.  0.00000000
 
ion      s     py     pz     px    dxy    dyz    dz2    dxz    dx2    tot
  1  0.288  0.004  0.004  0.104  0.009  0.043  0.001  0.009  0.003  0.464
  2  0.006  0.084  0.084  0.066  0.000  0.000  0.000  0.000  0.000  0.241
tot  0.293  0.089  0.089  0.170  0.009  0.043  0.001  0.009  0.003  0.705
 
band  12 # energy   14.98763670 # occ.  0.00000000
 
ion      s     py     pz     px    dxy    dyz    dz2    dxz    dx2    tot
  1  0.017  0.091  0.091  0.043  0.010  0.015  0.013  0.010  0.040  0.331
  2  0.027  0.026  0.026  0.071  0.000  0.000  0.000  0.000  0.000  0.151
tot  0.045  0.118  0.118  0.113  0.010  0.015  0.013  0.010  0.040  0.481
 
band  13 # energy   16.68506828 # occ.  0.00000000
 
ion      s     py     pz     px    dxy    dyz    dz2    dxz    dx2    tot
  1  0.000  0.230  0.230  0.000  0.022  0.000  0.019  0.022  0.006  0.528
  2  0.000  0.076  0.076  0.000  0.000  0.000  0.000  0.000  0.000  0.153
tot  0.000  0.306  0.306  0.000  0.022  0.000  0.019  0.022  0.006  0.680
 
band  14 # energy   19.00589951 # occ.  0.00000000
 
ion      s     py     pz     px    dxy    dyz    dz2    dxz    dx2    tot
  1  0.001  0.121  0.121  0.051  0.008  0.035  0.020  0.008  0.061  0.425
  2  0.004  0.025  0.025  0.087  0.000  0.000  0.000  0.000  0.000  0.141
tot  0.005  0.145  0.145  0.138  0.008  0.035  0.020  0.008  0.061  0.566
 
band  15 # energy   25.01500438 # occ.  0.00000000
 
ion      s     py     pz     px    dxy    dyz    dz2    dxz    dx2    tot
  1  0.075  0.023  0.023  0.083  0.040  0.008  0.014  0.040  0.043  0.349
  2  0.010  0.010  0.010  0.000  0.000  0.000  0.000  0.000  0.000  0.031
tot  0.085  0.034  0.034  0.084  0.040  0.008  0.014  0.040  0.043  0.380
 
band  16 # energy   25.63992401 # occ.  0.00000000
 
ion      s     py     pz     px    dxy    dyz    dz2    dxz    dx2    tot
  1  0.000  0.074  0.074  0.000  0.015  0.000  0.181  0.015  0.060  0.419
  2  0.000  0.032  0.032  0.000  0.000  0.000  0.000  0.000  0.000  0.064
tot  0.000  0.106  0.106  0.000  0.015  0.000  0.181  0.015  0.060  0.483
 

 k-point    6 :   -0.40000000 0.20000000 0.00000000     weight = 0.19200000

band   1 # energy   -9.81327113 # occ.  2.00000000
 
ion      s     py     pz     px    dxy    dyz    dz2    dxz    dx2    tot
  1  0.023  0.008  0.008  0.014  0.121  0.222  0.000  0.121  0.000  0.518
  2  0.337  0.000  0.000  0.000  0.000  0.000  0.000  0.000  0.000  0.337
tot  0.360  0.008  0.008  0.014  0.121  0.222  0.000  0.121  0.000  0.855
 
band   2 # energy   -8.31388054 # occ.  2.00000000
 
ion      s     py     pz     px    dxy    dyz    dz2    dxz    dx2    tot
  1  0.000  0.000  0.000  0.000  0.149  0.364  0.078  0.149  0.233  0.973
  2  0.000  0.001  0.001  0.007  0.000  0.000  0.000  0.000  0.000  0.010
tot  0.001  0.001  0.001  0.007  0.149  0.364  0.078  0.149  0.233  0.983
 
band   3 # energy   -8.25847265 # occ.  2.00000000
 
ion      s     py     pz     px    dxy    dyz    dz2    dxz    dx2    tot
  1  0.000  0.000  0.000  0.000  0.379  0.000  0.165  0.379  0.055  0.978
  2  0.000  0.005  0.005  0.000  0.000  0.000  0.000  0.000  0.000  0.010
tot  0.000  0.005  0.005  0.000  0.379  0.000  0.165  0.379  0.055  0.988
 
band   4 # energy   -8.12036171 # occ.  2.00000000
 
ion      s     py     pz     px    dxy    dyz    dz2    dxz    dx2    tot
  1  0.000  0.000  0.000  0.000  0.081  0.157  0.167  0.081  0.501  0.988
  2  0.000  0.000  0.000  0.000  0.000  0.000  0.000  0.000  0.000  0.001