    2    2    1    1
  0.5643294E+01  0.2517827E-09  0.2517827E-09  0.2517827E-09  0.5000000E-15
  1.000000000000000E-004
  CAR 
 Diamont Test Results                    
      8      3      8
 
  0.0000000E+00  0.0000000E+00  0.0000000E+00  0.1250000E+00
    1      -11.963842   1.000000
    2        9.314736   1.000000
    3        9.314765   1.000000
    4        9.314766   1.000000
    5       15.373514   0.000000
    6       15.373532   0.000000
    7       15.373536   0.000000
    8       23.183792   0.000000
 
  0.5000000E+00  0.2114441E-16  0.0000000E+00  0.5000000E+00
    1       -6.379184   1.000000
    2       -3.721935   1.000000
    3        6.515240   1.000000
    4        6.515262   1.000000
    5       18.331842   0.000000
    6       18.331865   0.000000
    7       18.661528   0.000000
    8       26.545372   0.000000
 
  0.5000000E+00  0.5000000E+00  0.0000000E+00  0.3750000E+00
    1       -3.369350   1.000000
    2       -3.369350   1.000000
    3        3.147934   1.000000
    4        3.147948   1.000000
    5       14.967408   0.000000
    6       14.967419   0.000000
    7       27.098121   0.000000
    8       27.098148   0.000000
