    2    2    1    1
  0.5643294E+01  0.2517827E-09  0.2517827E-09  0.2517827E-09  0.5000000E-15
  1.000000000000000E-004
  CAR 
 r-GeO2 ENCUT convergence test           
      8    120      8
 
  0.0000000E+00  0.0000000E+00  0.0000000E+00  0.2962963E-03
    1      -12.159391   1.000000
    2        8.898577   1.000000
    3        8.898578   1.000000
    4        8.898579   1.000000
    5       15.003374   0.000000
    6       15.003377   0.000000
    7       15.003378   0.000000
    8       22.887598   0.000000
 
  0.6666667E-01 -0.3295382E-17  0.0000000E+00  0.2370370E-02
    1      -12.038195   1.000000
    2        8.130182   1.000000
    3        8.699979   1.000000
    4        8.699980   1.000000
    5       15.269997   0.000000
    6       15.269999   0.000000
    7       15.474749   0.000000
    8       22.997953   0.000000
 
  0.1333333E+00 -0.6590764E-17  0.0000000E+00  0.2370370E-02
    1      -11.675632   1.000000
    2        6.364902   1.000000
    3        8.215683   1.000000
    4        8.215684   1.000000
    5       15.925924   0.000000
    6       15.925926   0.000000
    7       16.375987   0.000000
    8       23.327291   0.000000
 
  0.2000000E+00 -0.2235735E-16  0.0000000E+00  0.2370370E-02
    1      -11.075332   1.000000
    2        4.230188   1.000000
    3        7.637565   1.000000
    4        7.637566   1.000000
    5       16.691818   0.000000
    6       16.691819   0.000000
    7       17.168482   0.000000
    8       23.849097   0.000000
 
  0.2666667E+00  0.1781357E-17  0.0000000E+00  0.2370370E-02
    1      -10.245246   1.000000
    2        2.013398   1.000000
    3        7.095328   1.000000
    4        7.095330   1.000000
    5       17.334885   0.000000
    6       17.334886   0.000000
    7       17.721981   0.000000
    8       24.481534   0.000000
 
  0.3333333E+00 -0.8131428E-17  0.0000000E+00  0.2370370E-02
    1       -9.202492   1.000000
    2       -0.140549   1.000000
    3        6.655683   1.000000
    4        6.655685   1.000000
    5       17.740266   0.000000
    6       17.740267   0.000000
    7       18.070058   0.000000
    8       25.093100   0.000000
 
  0.4000000E+00 -0.4471469E-16  0.0000000E+00  0.2370370E-02
    1       -7.995311   1.000000
    2       -2.116956   1.000000
    3        6.350852   1.000000
    4        6.350853   1.000000
    5       17.930249   0.000000
    6       17.930250   0.000000
    7       18.270455   0.000000
    8       25.544534   0.000000
 
  0.4666667E+00 -0.4454063E-16  0.0000000E+00  0.2370370E-02
    1       -6.848310   1.000000
    2       -3.656331   1.000000
    3        6.195614   1.000000
    4        6.195616   1.000000
    5       17.992154   0.000000
    6       17.992155   0.000000
    7       18.362052   0.000000
    8       25.773370   0.000000
 
  0.6666667E-01  0.6666667E-01  0.0000000E+00  0.1777778E-02
    1      -11.997802   1.000000
    2        8.328553   1.000000
    3        8.328554   1.000000
    4        8.505700   1.000000
    5       14.902134   0.000000
    6       15.721698   0.000000
    7       15.721698   0.000000
    8       22.999161   0.000000
 
  0.1333333E+00  0.6666667E-01  0.0000000E+00  0.7111111E-02
    1      -11.715747   1.000000
    2        6.953381   1.000000
    3        7.751196   1.000000
    4        8.304394   1.000000
    5       15.097982   0.000000
    6       16.495124   0.000000
    7       16.552742   0.000000
    8       23.147558   0.000000
 
  0.2000000E+00  0.6666667E-01  0.0000000E+00  0.7111111E-02
    1      -11.194637   1.000000
    2        4.962026   1.000000
    3        7.146172   1.000000
    4        7.857484   1.000000
    5       15.718025   0.000000
    6       17.329879   0.000000
    7       17.390438   0.000000
    8       23.432399   0.000000
 
  0.2666667E+00  0.6666667E-01  0.0000000E+00  0.7111111E-02
    1      -10.440850   1.000000
    2        2.791608   1.000000
    3        6.620839   1.000000
    4        7.287263   1.000000
    5       16.450805   0.000000
    6       18.007495   0.000000
    7       18.009151   0.000000
    8       23.848405   0.000000
 
  0.3333333E+00  0.6666667E-01  0.0000000E+00  0.7111111E-02
    1       -9.467569   1.000000
    2        0.628283   1.000000
    3        6.229543   1.000000
    4        6.727277   1.000000
    5       17.053936   0.000000
    6       18.404566   0.000000
    7       18.407456   0.000000
    8       24.403973   0.000000
 
  0.4000000E+00  0.6666667E-01  0.0000000E+00  0.7111111E-02
    1       -8.307677   1.000000
    2       -1.406921   1.000000
    3        5.997270   1.000000
    4        6.250845   1.000000
    5       17.451037   0.000000
    6       18.526393   0.000000
    7       18.640917   0.000000
    8       25.027138   0.000000
 
  0.4666667E+00  0.6666667E-01  0.0000000E+00  0.7111111E-02
    1       -7.087068   1.000000
    2       -3.141296   1.000000
    3        5.897472   1.000000
    4        5.932542   1.000000
    5       17.702677   0.000000
    6       18.464028   0.000000
    7       18.756430   0.000000
    8       25.524639   0.000000
 
 -0.4666667E+00  0.6666667E-01  0.0000000E+00  0.7111111E-02
    1       -6.543991   1.000000
    2       -3.813936   1.000000
    3        5.690011   1.000000
    4        6.033939   1.000000
    5       17.892497   0.000000
    6       18.306518   0.000000
    7       18.778854   0.000000
    8       25.702345   0.000000
 
 -0.4000000E+00  0.6666667E-01  0.0000000E+00  0.7111111E-02
    1       -7.481559   1.000000
    2       -2.616178   1.000000
    3        5.642279   1.000000
    4        6.292534   1.000000
    5       18.045539   0.000000
    6       18.083829   0.000000
    7       18.712275   0.000000
    8       25.501588   0.000000
 
 -0.3333333E+00  0.6666667E-01  0.0000000E+00  0.7111111E-02
    1       -8.711512   1.000000
    2       -0.747243   1.000000
    3        5.761305   1.000000
    4        6.691988   1.000000
    5       17.758774   0.000000
    6       18.110139   0.000000
    7       18.535016   0.000000
    8       25.000138   0.000000
 
 -0.2666667E+00  0.6666667E-01  0.0000000E+00  0.7111111E-02
    1       -9.815345   1.000000
    2        1.344666   1.000000
    3        6.046760   1.000000
    4        7.204460   1.000000
    5       17.265125   0.000000
    6       17.992212   0.000000
    7       18.186957   0.000000
    8       24.390410   0.000000
 
 -0.2000000E+00  0.6666667E-01  0.0000000E+00  0.7111111E-02
    1      -10.717526   1.000000
    2        3.524758   1.000000
    3        6.488126   1.000000
    4        7.780832   1.000000
    5       16.592091   0.000000
    6       17.551434   0.000000
    7       17.663113   0.000000
    8       23.847991   0.000000
 
 -0.1333333E+00  0.6666667E-01  0.0000000E+00  0.7111111E-02
    1      -11.394665   1.000000
    2        5.652458   1.000000
    3        7.061338   1.000000
    4        8.329888   1.000000
    5       15.864140   0.000000
    6       16.738760   0.000000
    7       17.017905   0.000000
    8       23.432022   0.000000
 
 -0.6666667E-01  0.6666667E-01  0.0000000E+00  0.3555556E-02
    1      -11.836537   1.000000
    2        7.396765   1.000000
    3        7.794740   1.000000
    4        8.694635   1.000000
    5       15.335616   0.000000
    6       15.886995   0.000000
    7       16.172966   0.000000
    8       23.145049   0.000000
 
  0.1333333E+00  0.1333333E+00  0.0000000E+00  0.1777778E-02
    1      -11.514579   1.000000
    2        7.121030   1.000000
    3        7.121031   1.000000
    4        7.423400   1.000000
    5       14.641747   0.000000
    6       17.366567   0.000000
    7       17.366568   0.000000
    8       22.907446   0.000000
 
  0.2000000E+00  0.1333333E+00  0.0000000E+00  0.7111111E-02
    1      -11.074026   1.000000
    2        5.571801   1.000000
    3        6.490638   1.000000
    4        7.157304   1.000000
    5       14.799848   0.000000
    6       18.282085   0.000000
    7       18.297982   0.000000
    8       22.649326   0.000000
 
  0.2666667E+00  0.1333333E+00  0.0000000E+00  0.7111111E-02
    1      -10.399236   1.000000
    2        3.577139   1.000000
    3        5.959482   1.000000
    4        6.687226   1.000000
    5       15.410988   0.000000
    6       19.003774   0.000000
    7       19.075015   0.000000
    8       22.516542   0.000000
 
  0.3333333E+00  0.1333333E+00  0.0000000E+00  0.7111111E-02
    1       -9.500770   1.000000
    2        1.489816   1.000000
    3        5.579843   1.000000
    4        6.079531   1.000000
    5       16.121381   0.000000
    6       19.479785   0.000000
    7       19.551426   0.000000
    8       22.736266   0.000000
 
  0.4000000E+00  0.1333333E+00  0.0000000E+00  0.7111111E-02
    1       -8.402575   1.000000
    2       -0.540575   1.000000
    3        5.376451   1.000000
    4        5.474867   1.000000
    5       16.675020   0.000000
    6       19.697386   0.000000
    7       19.762020   0.000000
    8       23.430925   0.000000
 
  0.4666667E+00  0.1333333E+00  0.0000000E+00  0.7111111E-02
    1       -7.181387   1.000000
    2       -2.368383   1.000000
    3        4.955213   1.000000
    4        5.357541   1.000000
    5       17.052287   0.000000
    6       19.587351   0.000000
    7       19.907297   0.000000
    8       24.424124   0.000000
 
 -0.4666667E+00  0.1333333E+00  0.0000000E+00  0.7111111E-02
    1       -6.256461   1.000000
    2       -3.538161   1.000000
    3        4.567980   1.000000
    4        5.519968   1.000000
    5       17.360103   0.000000
    6       19.320124   0.000000
    7       19.954653   0.000000
    8       25.244741   0.000000
 
 -0.4000000E+00  0.1333333E+00  0.0000000E+00  0.7111111E-02
    1       -6.796448   1.000000
    2       -2.867982   1.000000
    3        4.342195   1.000000
    4        5.850725   1.000000
    5       17.666468   0.000000
    6       18.949196   0.000000
    7       19.914865   0.000000
    8       25.346099   0.000000
 
 -0.3333333E+00  0.1333333E+00  0.0000000E+00  0.7111111E-02
    1       -8.006055   1.000000
    2       -1.159720   1.000000
    3        4.296371   1.000000
    4        6.325560   1.000000
    5       17.951322   0.000000
    6       18.464303   0.000000
    7       19.760211   0.000000
    8       24.748205   0.000000
 
 -0.2666667E+00  0.1333333E+00  0.0000000E+00  0.7111111E-02
    1       -9.157835   1.000000
    2        0.829078   1.000000
    3        4.443153   1.000000
    4        6.904019   1.000000
    5       17.827843   0.000000
    6       18.120321   0.000000
    7       19.392749   0.000000
    8       24.020642   0.000000
 
 -0.2000000E+00  0.1333333E+00  0.0000000E+00  0.7111111E-02
    1      -10.125610   1.000000
    2        2.896047   1.000000
    3        4.802821   1.000000
    4        7.517698   1.000000
    5       17.060859   0.000000
    6       18.056696   0.000000
    7       18.688814   0.000000
    8       23.592082   0.000000
 
 -0.1333333E+00  0.1333333E+00  0.0000000E+00  0.3555556E-02
    1      -10.875834   1.000000
    2        4.707394   1.000000
    3        5.556493   1.000000
    4        8.050072   1.000000
    5       16.317158   0.000000
    6       17.685782   0.000000
    7       17.714722   0.000000
    8       23.474144   0.000000
 
  0.2000000E+00  0.2000000E+00  0.0000000E+00  0.1777778E-02
    1      -10.714636   1.000000
    2        5.835124   1.000000
    3        5.835124   1.000000
    4        5.845198   1.000000
    5       14.322614   0.000000
    6       19.357185   0.000000
    7       19.357185   0.000000
    8       21.737619   0.000000
 
  0.2666667E+00  0.2000000E+00  0.0000000E+00  0.7111111E-02
    1      -10.120469   1.000000
    2        4.159482   1.000000
    3        5.281430   1.000000
    4        5.631587   1.000000
    5       14.495732   0.000000
    6       20.260412   0.000000
    7       20.290227   0.000000
    8       21.014831   0.000000
 
  0.3333333E+00  0.2000000E+00  0.0000000E+00  0.7111111E-02
    1       -9.300237   1.000000
    2        2.287351   1.000000
    3        4.885146   1.000000
    4        5.068671   1.000000
    5       15.125347   0.000000
    6       20.655629   0.000000
    7       20.924994   0.000000
    8       20.983780   0.000000
 
  0.4000000E+00  0.2000000E+00  0.0000000E+00  0.7111111E-02
    1       -8.272500   1.000000
    2        0.370528   1.000000
    3        4.375027   1.000000
    4        4.673962   1.000000
    5       15.794526   0.000000
    6       21.027078   0.000000
    7       21.184602   0.000000
    8       21.424608   0.000000
 
  0.4666667E+00  0.2000000E+00  0.0000000E+00  0.7111111E-02
    1       -7.088093   1.000000
    2       -1.447885   1.000000
    3        3.710269   1.000000
    4        4.658422   1.000000
    5       16.273423   0.000000
    6       21.109823   0.000000
    7       21.409923   0.000000
    8       22.386212   0.000000
 
 -0.4666667E+00  0.2000000E+00  0.0000000E+00  0.7111111E-02
    1       -5.976423   1.000000
    2       -2.880850   1.000000
    3        3.162273   1.000000
    4        4.836654   1.000000
    5       16.643272   0.000000
    6       20.792683   0.000000
    7       21.515460   0.000000
    8       23.851464   0.000000
 
 -0.4000000E+00  0.2000000E+00  0.0000000E+00  0.7111111E-02
    1       -5.992883   1.000000
    2       -2.845388   1.000000
    3        2.780121   1.000000
    4        5.195437   1.000000
    5       17.028787   0.000000
    6       20.301494   0.000000
    7       21.511889   0.000000
    8       24.903410   0.000000
 
 -0.3333333E+00  0.2000000E+00  0.0000000E+00  0.7111111E-02
    1       -7.107179   1.000000
    2       -1.373854   1.000000
    3        2.596777   1.000000
    4        5.707977   1.000000
    5       17.456464   0.000000
    6       19.647939   0.000000
    7       21.381157   0.000000
    8       24.570757   0.000000
 
 -0.2666667E+00  0.2000000E+00  0.0000000E+00  0.7111111E-02
    1       -8.285886   1.000000
    2        0.449024   1.000000
    3        2.657561   1.000000
    4        6.327426   1.000000
    5       17.861188   0.000000
    6       18.824089   0.000000
    7       20.936692   0.000000
    8       23.732637   0.000000
 
 -0.2000000E+00  0.2000000E+00  0.0000000E+00  0.3555556E-02
    1       -9.308825   1.000000
    2        2.098170   1.000000
    3        3.220047   1.000000
    4        6.974185   1.000000
    5       17.896721   0.000000
    6       18.108725   0.000000
    7       19.946377   0.000000
    8       23.419604   0.000000
 
  0.2666667E+00  0.2666667E+00  0.0000000E+00  0.1777778E-02
    1       -9.607503   1.000000
    2        3.937132   1.000000
    3        4.696781   1.000000
    4        4.696781   1.000000
    5       14.055275   0.000000
    6       19.765702   0.000000
    7       21.426184   0.000000
    8       21.426184   0.000000
 
  0.3333333E+00  0.2666667E+00  0.0000000E+00  0.7111111E-02
    1       -8.867590   1.000000
    2        2.582605   1.000000
    3        4.177742   1.000000
    4        4.267405   1.000000
    5       14.288332   0.000000
    6       19.019902   0.000000
    7       22.281158   0.000000
    8       22.285413   0.000000
 
  0.4000000E+00  0.2666667E+00  0.0000000E+00  0.7111111E-02
    1       -7.915793   1.000000
    2        1.001831   1.000000
    3        3.402007   1.000000
    4        4.025682   1.000000
    5       14.942152   0.000000
    6       18.983294   0.000000
    7       22.733067   0.000000
    8       22.824711   0.000000
 
  0.4666667E+00  0.2666667E+00  0.0000000E+00  0.7111111E-02
    1       -6.788118   1.000000
    2       -0.616342   1.000000
    3        2.552862   1.000000
    4        3.985478   1.000000
    5       15.528972   0.000000
    6       19.866440   0.000000
    7       22.767453   0.000000
    8       23.122741   0.000000
 
 -0.4666667E+00  0.2666667E+00  0.0000000E+00  0.7111111E-02
    1       -5.617945   1.000000
    2       -2.071659   1.000000
    3        1.808628   1.000000
    4        4.147463   1.000000
    5       15.938725   0.000000
    6       21.469782   0.000000
    7       22.452681   0.000000
    8       23.300826   0.000000
 
 -0.4000000E+00  0.2666667E+00  0.0000000E+00  0.7111111E-02
    1       -5.147882   1.000000
    2       -2.574375   1.000000
    3        1.258144   1.000000
    4        4.500319   1.000000
    5       16.345248   0.000000
    6       21.860023   0.000000
    7       22.896451   0.000000
    8       23.790745   0.000000
 
 -0.3333333E+00  0.2666667E+00  0.0000000E+00  0.7111111E-02
    1       -6.056020   1.000000
    2       -1.456336   1.000000
    3        0.972597   1.000000
    4        5.018315   1.000000
    5       16.832763   0.000000
    6       21.020429   0.000000
    7       23.060620   0.000000
    8       24.379009   0.000000
 
 -0.2666667E+00  0.2666667E+00  0.0000000E+00  0.3555556E-02
    1       -7.226574   1.000000
    2       -0.111569   1.000000
    3        1.239694   1.000000
    4        5.654448   1.000000
    5       17.374732   0.000000
    6       19.967353   0.000000
    7       22.461786   0.000000
    8       23.737530   0.000000
 
  0.3333333E+00  0.3333333E+00  0.0000000E+00  0.1777778E-02
    1       -8.208700   1.000000
    2        1.825657   1.000000
    3        3.797259   1.000000
    4        3.797259   1.000000
    5       13.933659   0.000000
    6       17.835593   0.000000
    7       23.396115   0.000000
    8       23.396115   0.000000
 
  0.4000000E+00  0.3333333E+00  0.0000000E+00  0.7111111E-02
    1       -7.335636   1.000000
    2        0.649911   1.000000
    3        3.185596   1.000000
    4        3.512758   1.000000
    5       14.259330   0.000000
    6       17.294980   0.000000
    7       24.096224   0.000000
    8       24.135684   0.000000
 
  0.4666667E+00  0.3333333E+00  0.0000000E+00  0.7111111E-02
    1       -6.275877   1.000000
    2       -0.565072   1.000000
    3        2.185936   1.000000
    4        3.431728   1.000000
    5       14.905235   0.000000
    6       17.642132   0.000000
    7       24.301018   0.000000
    8       24.538296   0.000000
 
 -0.4666667E+00  0.3333333E+00  0.0000000E+00  0.7111111E-02
    1       -5.113575   1.000000
    2       -1.722618   1.000000
    3        1.118797   1.000000
    4        3.558031   1.000000
    5       15.360401   0.000000
    6       19.058766   0.000000
    7       24.032488   0.000000
    8       24.709183   0.000000
 
 -0.4000000E+00  0.3333333E+00  0.0000000E+00  0.7111111E-02
    1       -4.327637   1.000000
    2       -2.410701   1.000000
    3        0.287283   1.000000
    4        3.883192   1.000000
    5       15.749630   0.000000
    6       21.091526   0.000000
    7       23.352714   0.000000
    8       24.734588   0.000000
 
 -0.3333333E+00  0.3333333E+00  0.0000000E+00  0.3555556E-02
    1       -4.957717   1.000000
    2       -1.815286   1.000000
    3        0.035442   1.000000
    4        4.384438   1.000000
    5       16.237368   0.000000
    6       22.317059   0.000000
    7       23.069542   0.000000
    8       24.535178   0.000000
 
  0.4000000E+00  0.4000000E+00  0.0000000E+00  0.1777778E-02
    1       -6.541724   1.000000
    2       -0.376458   1.000000
    3        3.179946   1.000000
    4        3.179947   1.000000
    5       14.033911   0.000000
    6       16.278896   0.000000
    7       25.055046   0.000000
    8       25.055047   0.000000
 
  0.4666667E+00  0.4000000E+00  0.0000000E+00  0.7111111E-02
    1       -5.555573   1.000000
    2       -1.467681   1.000000
    3        2.636297   1.000000
    4        3.049629   1.000000
    5       14.467433   0.000000
    6       15.995550   0.000000
    7       25.461242   0.000000
    8       25.545261   0.000000
 
 -0.4666667E+00  0.4000000E+00  0.0000000E+00  0.7111111E-02
    1       -4.434033   1.000000
    2       -2.457134   1.000000
    3        1.634986   1.000000
    4        3.129163   1.000000
    5       14.973716   0.000000
    6       16.869889   0.000000
    7       25.278899   0.000000
    8       25.670547   0.000000
 
 -0.4000000E+00  0.4000000E+00  0.0000000E+00  0.3555556E-02
    1       -3.658028   1.000000
    2       -2.967979   1.000000
    3        0.608505   1.000000
    4        3.413353   1.000000
    5       15.303478   0.000000
    6       18.785881   0.000000
    7       24.546158   0.000000
    8       25.450776   0.000000
 
  0.4666667E+00  0.4666667E+00  0.0000000E+00  0.1777778E-02
    1       -4.642658   1.000000
    2       -2.563481   1.000000
    3        2.866582   1.000000
    4        2.866583   1.000000
    5       14.419695   0.000000
    6       15.150129   0.000000
    7       26.055660   0.000000
    8       26.055661   0.000000
 
 -0.4666667E+00  0.4666667E+00  0.0000000E+00  0.3555556E-02
    1       -3.601332   1.000000
    2       -3.548775   1.000000
    3        2.458609   1.000000
    4        2.893672   1.000000
    5       14.802176   0.000000
    6       15.293352   0.000000
    7       25.989732   0.000000
    8       26.097208   0.000000
 
  0.2000000E+00  0.1333333E+00  0.6666667E-01  0.7111111E-02
    1      -11.354350   1.000000
    2        6.059263   1.000000
    3        6.637782   1.000000
    4        8.048808   1.000000
    5       15.246734   0.000000
    6       17.356298   0.000000
    7       17.392575   0.000000
    8       23.150770   0.000000
 
  0.2666667E+00  0.1333333E+00  0.6666667E-01  0.1422222E-01
    1      -10.756338   1.000000
    2        4.257547   1.000000
    3        5.887531   1.000000
    4        7.621320   1.000000
    5       15.843326   0.000000
    6       18.067261   0.000000
    7       18.276293   0.000000
    8       23.191368   0.000000
 
  0.3333333E+00  0.1333333E+00  0.6666667E-01  0.1422222E-01
    1       -9.929910   1.000000
    2        2.158785   1.000000
    3        5.409874   1.000000
    4        7.047792   1.000000
    5       16.588521   0.000000
    6       18.459043   0.000000
    7       19.018981   0.000000
    8       23.421053   0.000000
 
  0.4000000E+00  0.1333333E+00  0.6666667E-01  0.1422222E-01
    1       -8.892662   1.000000
    2        0.070043   1.000000
    3        5.104373   1.000000
    4        6.470479   1.000000
    5       17.218401   0.000000
    6       18.587346   0.000000
    7       19.478927   0.000000
    8       23.989255   0.000000
 
  0.4666667E+00  0.1333333E+00  0.6666667E-01  0.1422222E-01
    1       -7.693707   1.000000
    2       -1.866129   1.000000
    3        4.958423   1.000000
    4        5.989148   1.000000
    5       17.636550   0.000000
    6       18.531884   0.000000
    7       19.711382   0.000000
    8       24.776662   0.000000
 
 -0.4666667E+00  0.1333333E+00  0.6666667E-01  0.1422222E-01
    1       -6.558170   1.000000
    2       -3.379847   1.000000
    3        4.929492   1.000000
    4        5.694209   1.000000
    5       17.864380   0.000000
    6       18.420527   0.000000
    7       19.806519   0.000000
    8       25.382991   0.000000
 
  0.2666667E+00  0.2000000E+00  0.6666667E-01  0.7111111E-02
    1      -10.556657   1.000000
    2        4.648988   1.000000
    3        5.387321   1.000000
    4        6.762726   1.000000
    5       14.955864   0.000000
    6       19.060081   0.000000
    7       19.343687   0.000000
    8       22.103399   0.000000
 
  0.3333333E+00  0.2000000E+00  0.6666667E-01  0.1422222E-01
    1       -9.808924   1.000000
    2        2.925232   1.000000
    3        4.700482   1.000000
    4        6.281644   1.000000
    5       15.589548   0.000000
    6       19.534890   0.000000
    7       20.269235   0.000000
    8       21.807736   0.000000
 
  0.4000000E+00  0.2000000E+00  0.6666667E-01  0.1422222E-01
    1       -8.844979   1.000000
    2        0.954001   1.000000
    3        4.314432   1.000000
    4        5.700054   1.000000
    5       16.329833   0.000000
    6       19.706516   0.000000
    7       20.862290   0.000000
    8       22.105581   0.000000
 
  0.4666667E+00  0.2000000E+00  0.6666667E-01  0.1422222E-01
    1       -7.699121   1.000000
    2       -0.967599   1.000000
    3        4.059195   1.000000
    4        5.206065   1.000000
    5       16.893399   0.000000
    6       19.645318   0.000000
    7       21.176920   0.000000
    8       23.017177   0.000000
 
 -0.4666667E+00  0.2000000E+00  0.6666667E-01  0.1422222E-01
    1       -6.499303   1.000000
    2       -2.629630   1.000000
    3        3.829096   1.000000
    4        4.980473   1.000000
    5       17.276261   0.000000
    6       19.443094   0.000000
    7       21.319650   0.000000
    8       24.207204   0.000000
 
 -0.4000000E+00  0.2000000E+00  0.6666667E-01  0.1422222E-01
    1       -5.973843   1.000000
    2       -3.267972   1.000000
    3        3.594956   1.000000
    4        5.091937   1.000000
    5       17.602850   0.000000
    6       19.145766   0.000000
    7       21.318503   0.000000
    8       24.992514   0.000000
 
 -0.3333333E+00  0.2000000E+00  0.6666667E-01  0.1422222E-01
    1       -6.892492   1.000000
    2       -2.104654   1.000000
    3        3.447370   1.000000
    4        5.460158   1.000000
    5       17.927027   0.000000
    6       18.755865   0.000000
    7       21.195098   0.000000
    8       24.615828   0.000000
 
 -0.2666667E+00  0.2000000E+00  0.6666667E-01  0.1422222E-01
    1       -8.102513   1.000000
    2       -0.310954   1.000000
    3        3.461203   1.000000
    4        5.996296   1.000000
    5       17.992372   0.000000
    6       18.437926   0.000000
    7       20.917920   0.000000
    8       23.658391   0.000000
 
 -0.2000000E+00  0.2000000E+00  0.6666667E-01  0.1422222E-01
    1       -9.192355   1.000000
    2        1.635411   1.000000
    3        3.691893   1.000000
    4        6.617168   1.000000
    5       17.299215   0.000000
    6       18.550747   0.000000
    7       20.341301   0.000000
    8       22.985167   0.000000
 
 -0.1333333E+00  0.2000000E+00  0.6666667E-01  0.7111111E-02
    1      -10.085213   1.000000
    2        3.359672   1.000000
    3        4.363986   1.000000
    4        7.210320   1.000000
    5       16.461932   0.000000
    6       18.474637   0.000000
    7       19.379484   0.000000
    8       22.918637   0.000000
 
  0.3333333E+00  0.2666667E+00  0.6666667E-01  0.7111111E-02
    1       -9.453382   1.000000
    2        3.198418   1.000000
    3        4.276145   1.000000
    4        5.234700   1.000000
    5       14.701022   0.000000
    6       20.217042   0.000000
    7       20.909815   0.000000
    8       21.433096   0.000000
 
  0.4000000E+00  0.2666667E+00  0.6666667E-01  0.1422222E-01
    1       -8.566946   1.000000
    2        1.655704   1.000000
    3        3.614414   1.000000
    4        4.732731   1.000000
    5       15.386288   0.000000
    6       19.978835   0.000000
    7       21.202823   0.000000
    8       22.325214   0.000000
 
  0.4666667E+00  0.2666667E+00  0.6666667E-01  0.1422222E-01
    1       -7.486923   1.000000
    2       -0.085001   1.000000
    3        3.126095   1.000000
    4        4.297809   1.000000
    5       16.088396   0.000000
    6       20.490430   0.000000
    7       21.247507   0.000000
    8       22.878308   0.000000
 
 -0.4666667E+00  0.2666667E+00  0.6666667E-01  0.1422222E-01
    1       -6.292544   1.000000
    2       -1.736164   1.000000
    3        2.618002   1.000000
    4        4.172725   1.000000
    5       16.566638   0.000000
    6       20.967062   0.000000
    7       21.818767   0.000000
    8       23.183901   0.000000
 
 -0.4000000E+00  0.2666667E+00  0.6666667E-01  0.1422222E-01
    1       -5.405928   1.000000
    2       -2.798734   1.000000
    3        2.155371   1.000000
    4        4.353008   1.000000
    5       16.952250   0.000000
    6       20.651773   0.000000
    7       22.704818   0.000000
    8       23.844869   0.000000
 
 -0.3333333E+00  0.2666667E+00  0.6666667E-01  0.1422222E-01
    1       -5.944634   1.000000
    2       -2.130873   1.000000
    3        1.842180   1.000000
    4        4.761621   1.000000
    5       17.376811   0.000000
    6       20.127292   0.000000
    7       22.685404   0.000000
    8       24.420473   0.000000
 
 -0.2666667E+00  0.2666667E+00  0.6666667E-01  0.1422222E-01
    1       -7.119717   1.000000
    2       -0.557528   1.000000
    3        1.763465   1.000000
    4        5.333441   1.000000
    5       17.853516   0.000000
    6       19.347935   0.000000
    7       22.440335   0.000000
    8       23.565965   0.000000
 
 -0.2000000E+00  0.2666667E+00  0.6666667E-01  0.7111111E-02
    1       -8.243758   1.000000
    2        0.938989   1.000000
    3        2.203261   1.000000
    4        5.991146   1.000000
    5       18.297783   0.000000
    6       18.331160   0.000000
    7       21.686440   0.000000
    8       22.873271   0.000000
 
  0.4000000E+00  0.3333333E+00  0.6666667E-01  0.7111111E-02
    1       -8.061318   1.000000
    2        1.537587   1.000000
    3        3.401903   1.000000
    4        3.902030   1.000000
    5       14.582481   0.000000
    6       18.352695   0.000000
    7       22.756657   0.000000
    8       23.417098   0.000000
 
  0.4666667E+00  0.3333333E+00  0.6666667E-01  0.1422222E-01
    1       -7.054608   1.000000
    2        0.261788   1.000000
    3        2.606622   1.000000
    4        3.526974   1.000000
    5       15.320325   0.000000
    6       18.407917   0.000000
    7       22.895990   0.000000
    8       24.140374   0.000000
 
 -0.4666667E+00  0.3333333E+00  0.6666667E-01  0.1422222E-01
    1       -5.900969   1.000000
    2       -1.093674   1.000000
    3        1.722559   1.000000
    4        3.455921   1.000000
    5       15.924362   0.000000
    6       19.459787   0.000000
    7       22.774849   0.000000
    8       24.412726   0.000000
 