<?xml version="1.0" encoding="ISO-8859-1"?>
<modeling>
 <generator>
  <i name="program" type="string">vasp </i>
  <i name="version" type="string">5.4.4.18Apr17-6-g9f103f2a35  </i>
  <i name="subversion" type="string">(build Jan 25 2021 16:16:55) complex            parallel </i>
  <i name="platform" type="string">LinuxIFC </i>
  <i name="date" type="string">2026 04 30 </i>
  <i name="time" type="string">12:30:06 </i>
 </generator>
 <incar>
  <i type="string" name="SYSTEM"> r-GeO2 ENCUT convergence test</i>
  <i type="int" name="ISTART">     0</i>
  <i type="string" name="PREC">accurate</i>
  <i type="string" name="ALGO"> Normal</i>
  <i type="int" name="ICHARG">     2</i>
  <i type="int" name="IBRION">    -1</i>
  <i name="EDIFF">      0.00010000</i>
  <i type="int" name="NSW">     0</i>
  <i name="ENCUT">    500.00000000</i>
  <i type="logical" name="LREAL"> F  </i>
  <i type="int" name="ISMEAR">     0</i>
  <i name="SIGMA">      0.05000000</i>
  <i type="logical" name="LWAVE"> F  </i>
  <i type="logical" name="LCHARG"> F  </i>
  <i type="int" name="LORBIT">    11</i>
  <i type="logical" name="LASPH"> T  </i>
  <v type="int" name="KPOINT_BSE">    -1     0     0     0</v>
  <i type="logical" name="LASPH"> T  </i>
 </incar>
 <structure name="primitive_cell" >
  <crystal>
   <varray name="basis" >
    <v>       2.18050236       0.00000000       1.25891346 </v>
    <v>       0.72683412       2.05579703       1.25891346 </v>
    <v>       0.00000000       0.00000000       2.51782692 </v>
   </varray>
   <i name="volume">     11.28658789 </i>
   <varray name="rec_basis" >
    <v>       0.45860991      -0.16214311       0.00000000 </v>
    <v>       0.00000000       0.48642934       0.00000000 </v>
    <v>      -0.22930496      -0.16214311       0.39716789 </v>
   </varray>
  </crystal>
  <varray name="positions" >
   <v>      -0.12500000      -0.12500000      -0.12500000 </v>
   <v>       0.12500000       0.12500000       0.12500000 </v>
  </varray>
 </structure>
 <varray name="primitive_index" >
  <v type="int" >        1 </v>
  <v type="int" >        2 </v>
 </varray>
 <kpoints>
  <generation param="Gamma">
   <v type="int" name="divisions">      15       15       15 </v>
   <v name="usershift">      0.00000000       0.00000000       0.00000000 </v>
   <v name="genvec1">      0.06666667      -0.00000000       0.00000000 </v>
   <v name="genvec2">      0.00000000       0.06666667       0.00000000 </v>
   <v name="genvec3">      0.00000000       0.00000000       0.06666667 </v>
   <v name="shift">      0.00000000       0.00000000       0.00000000 </v>
  </generation>
  <varray name="kpointlist" >
   <v>       0.00000000       0.00000000       0.00000000 </v>
   <v>       0.06666667      -0.00000000       0.00000000 </v>
   <v>       0.13333333      -0.00000000       0.00000000 </v>
   <v>       0.20000000      -0.00000000       0.00000000 </v>
   <v>       0.26666667       0.00000000       0.00000000 </v>
   <v>       0.33333333      -0.00000000       0.00000000 </v>
   <v>       0.40000000      -0.00000000       0.00000000 </v>
   <v>       0.46666667      -0.00000000       0.00000000 </v>
   <v>       0.06666667       0.06666667       0.00000000 </v>
   <v>       0.13333333       0.06666667       0.00000000 </v>
   <v>       0.20000000       0.06666667       0.00000000 </v>
   <v>       0.26666667       0.06666667       0.00000000 </v>
   <v>       0.33333333       0.06666667       0.00000000 </v>
   <v>       0.40000000       0.06666667       0.00000000 </v>
   <v>       0.46666667       0.06666667       0.00000000 </v>
   <v>      -0.46666667       0.06666667       0.00000000 </v>
   <v>      -0.40000000       0.06666667       0.00000000 </v>
   <v>      -0.33333333       0.06666667       0.00000000 </v>
   <v>      -0.26666667       0.06666667       0.00000000 </v>
   <v>      -0.20000000       0.06666667       0.00000000 </v>
   <v>      -0.13333333       0.06666667       0.00000000 </v>
   <v>      -0.06666667       0.06666667       0.00000000 </v>
   <v>       0.13333333       0.13333333       0.00000000 </v>
   <v>       0.20000000       0.13333333       0.00000000 </v>
   <v>       0.26666667       0.13333333       0.00000000 </v>
   <v>       0.33333333       0.13333333       0.00000000 </v>
   <v>       0.40000000       0.13333333       0.00000000 </v>
   <v>       0.46666667       0.13333333       0.00000000 </v>
   <v>      -0.46666667       0.13333333       0.00000000 </v>
   <v>      -0.40000000       0.13333333       0.00000000 </v>
   <v>      -0.33333333       0.13333333       0.00000000 </v>
   <v>      -0.26666667       0.13333333       0.00000000 </v>
   <v>      -0.20000000       0.13333333       0.00000000 </v>
   <v>      -0.13333333       0.13333333       0.00000000 </v>
   <v>       0.20000000       0.20000000       0.00000000 </v>
   <v>       0.26666667       0.20000000       0.00000000 </v>
   <v>       0.33333333       0.20000000       0.00000000 </v>
   <v>       0.40000000       0.20000000       0.00000000 </v>
   <v>       0.46666667       0.20000000       0.00000000 </v>
   <v>      -0.46666667       0.20000000       0.00000000 </v>
   <v>      -0.40000000       0.20000000       0.00000000 </v>
   <v>      -0.33333333       0.20000000       0.00000000 </v>
   <v>      -0.26666667       0.20000000       0.00000000 </v>
   <v>      -0.20000000       0.20000000       0.00000000 </v>
   <v>       0.26666667       0.26666667       0.00000000 </v>
   <v>       0.33333333       0.26666667       0.00000000 </v>
   <v>       0.40000000       0.26666667       0.00000000 </v>
   <v>       0.46666667       0.26666667       0.00000000 </v>
   <v>      -0.46666667       0.26666667       0.00000000 </v>
   <v>      -0.40000000       0.26666667       0.00000000 </v>
   <v>      -0.33333333       0.26666667       0.00000000 </v>
   <v>      -0.26666667       0.26666667       0.00000000 </v>
   <v>       0.33333333       0.33333333       0.00000000 </v>
   <v>       0.40000000       0.33333333       0.00000000 </v>
   <v>       0.46666667       0.33333333       0.00000000 </v>
   <v>      -0.46666667       0.33333333       0.00000000 </v>
   <v>      -0.40000000       0.33333333       0.00000000 </v>
   <v>      -0.33333333       0.33333333       0.00000000 </v>
   <v>       0.40000000       0.40000000       0.00000000 </v>
   <v>       0.46666667       0.40000000       0.00000000 </v>
   <v>      -0.46666667       0.40000000       0.00000000 </v>
   <v>      -0.40000000       0.40000000       0.00000000 </v>
   <v>       0.46666667       0.46666667       0.00000000 </v>
   <v>      -0.46666667       0.46666667       0.00000000 </v>
   <v>       0.20000000       0.13333333       0.06666667 </v>
   <v>       0.26666667       0.13333333       0.06666667 </v>
   <v>       0.33333333       0.13333333       0.06666667 </v>
   <v>       0.40000000       0.13333333       0.06666667 </v>
   <v>       0.46666667       0.13333333       0.06666667 </v>
   <v>      -0.46666667       0.13333333       0.06666667 </v>
   <v>       0.26666667       0.20000000       0.06666667 </v>
   <v>       0.33333333       0.20000000       0.06666667 </v>
   <v>       0.40000000       0.20000000       0.06666667 </v>
   <v>       0.46666667       0.20000000       0.06666667 </v>
   <v>      -0.46666667       0.20000000       0.06666667 </v>
   <v>      -0.40000000       0.20000000       0.06666667 </v>
   <v>      -0.33333333       0.20000000       0.06666667 </v>
   <v>      -0.26666667       0.20000000       0.06666667 </v>
   <v>      -0.20000000       0.20000000       0.06666667 </v>
   <v>      -0.13333333       0.20000000       0.06666667 </v>
   <v>       0.33333333       0.26666667       0.06666667 </v>
   <v>       0.40000000       0.26666667       0.06666667 </v>
   <v>       0.46666667       0.26666667       0.06666667 </v>
   <v>      -0.46666667       0.26666667       0.06666667 </v>
   <v>      -0.40000000       0.26666667       0.06666667 </v>
   <v>      -0.33333333       0.26666667       0.06666667 </v>
   <v>      -0.26666667       0.26666667       0.06666667 </v>
   <v>      -0.20000000       0.26666667       0.06666667 </v>
   <v>       0.40000000       0.33333333       0.06666667 </v>
   <v>       0.46666667       0.33333333       0.06666667 </v>
   <v>      -0.46666667       0.33333333       0.06666667 </v>
   <v>      -0.40000000       0.33333333       0.06666667 </v>
   <v>      -0.33333333       0.33333333       0.06666667 </v>
   <v>      -0.26666667       0.33333333       0.06666667 </v>
   <v>       0.46666667       0.40000000       0.06666667 </v>
   <v>      -0.46666667       0.40000000       0.06666667 </v>
   <v>      -0.40000000       0.40000000       0.06666667 </v>
   <v>      -0.33333333       0.40000000       0.06666667 </v>
   <v>      -0.46666667       0.46666667       0.06666667 </v>
   <v>      -0.40000000       0.46666667       0.06666667 </v>
   <v>       0.40000000       0.26666667       0.13333333 </v>
   <v>       0.46666667       0.26666667       0.13333333 </v>
   <v>      -0.46666667       0.26666667       0.13333333 </v>
   <v>      -0.40000000       0.26666667       0.13333333 </v>
   <v>       0.46666667       0.33333333       0.13333333 </v>
   <v>      -0.46666667       0.33333333       0.13333333 </v>
   <v>      -0.40000000       0.33333333       0.13333333 </v>
   <v>      -0.33333333       0.33333333       0.13333333 </v>
   <v>      -0.26666667       0.33333333       0.13333333 </v>
   <v>      -0.20000000       0.33333333       0.13333333 </v>
   <v>      -0.46666667       0.40000000       0.13333333 </v>
   <v>      -0.40000000       0.40000000       0.13333333 </v>
   <v>      -0.33333333       0.40000000       0.13333333 </v>
   <v>      -0.26666667       0.40000000       0.13333333 </v>
   <v>      -0.40000000       0.46666667       0.13333333 </v>
   <v>      -0.33333333       0.46666667       0.13333333 </v>
   <v>      -0.40000000       0.40000000       0.20000000 </v>
   <v>      -0.33333333       0.40000000       0.20000000 </v>
   <v>      -0.33333333       0.46666667       0.20000000 </v>
   <v>      -0.26666667       0.46666667       0.20000000 </v>
  </varray>
  <varray name="weights" >
   <v>       0.00029630 </v>
   <v>       0.00237037 </v>
   <v>       0.00237037 </v>
   <v>       0.00237037 </v>
   <v>       0.00237037 </v>
   <v>       0.00237037 </v>
   <v>       0.00237037 </v>
   <v>       0.00237037 </v>
   <v>       0.00177778 </v>
   <v>       0.00711111 </v>
   <v>       0.00711111 </v>
   <v>       0.00711111 </v>
   <v>       0.00711111 </v>
   <v>       0.00711111 </v>
   <v>       0.00711111 </v>
   <v>       0.00711111 </v>
   <v>       0.00711111 </v>
   <v>       0.00711111 </v>
   <v>       0.00711111 </v>
   <v>       0.00711111 </v>
   <v>       0.00711111 </v>
   <v>       0.00355556 </v>
   <v>       0.00177778 </v>
   <v>       0.00711111 </v>
   <v>       0.00711111 </v>
   <v>       0.00711111 </v>
   <v>       0.00711111 </v>
   <v>       0.00711111 </v>
   <v>       0.00711111 </v>
   <v>       0.00711111 </v>
   <v>       0.00711111 </v>
   <v>       0.00711111 </v>
   <v>       0.00711111 </v>
   <v>       0.00355556 </v>
   <v>       0.00177778 </v>
   <v>       0.00711111 </v>
   <v>       0.00711111 </v>
   <v>       0.00711111 </v>
   <v>       0.00711111 </v>
   <v>       0.00711111 </v>
   <v>       0.00711111 </v>
   <v>       0.00711111 </v>
   <v>       0.00711111 </v>
   <v>       0.00355556 </v>
   <v>       0.00177778 </v>
   <v>       0.00711111 </v>
   <v>       0.00711111 </v>
   <v>       0.00711111 </v>
   <v>       0.00711111 </v>
   <v>       0.00711111 </v>
   <v>       0.00711111 </v>
   <v>       0.00355556 </v>
   <v>       0.00177778 </v>
   <v>       0.00711111 </v>
   <v>       0.00711111 </v>
   <v>       0.00711111 </v>
   <v>       0.00711111 </v>
   <v>       0.00355556 </v>
   <v>       0.00177778 </v>
   <v>       0.00711111 </v>
   <v>       0.00711111 </v>
   <v>       0.00355556 </v>
   <v>       0.00177778 </v>
   <v>       0.00355556 </v>
   <v>       0.00711111 </v>
   <v>       0.01422222 </v>
   <v>       0.01422222 </v>
   <v>       0.01422222 </v>
   <v>       0.01422222 </v>
   <v>       0.01422222 </v>
   <v>       0.00711111 </v>
   <v>       0.01422222 </v>
   <v>       0.01422222 </v>
   <v>       0.01422222 </v>
   <v>       0.01422222 </v>
   <v>       0.01422222 </v>
   <v>       0.01422222 </v>
   <v>       0.01422222 </v>
   <v>       0.01422222 </v>
   <v>       0.00711111 </v>
   <v>       0.00711111 </v>
   <v>       0.01422222 </v>
   <v>       0.01422222 </v>
   <v>       0.01422222 </v>
   <v>       0.01422222 </v>
   <v>       0.01422222 </v>
   <v>       0.01422222 </v>
   <v>       0.00711111 </v>
   <v>       0.00711111 </v>
   <v>       0.01422222 </v>
   <v>       0.01422222 </v>
   <v>       0.01422222 </v>
   <v>       0.01422222 </v>
   <v>       0.00711111 </v>
   <v>       0.00711111 </v>
   <v>       0.01422222 </v>
   <v>       0.01422222 </v>
   <v>       0.00711111 </v>
   <v>       0.00711111 </v>
   <v>       0.00711111 </v>
   <v>       0.00711111 </v>
   <v>       0.01422222 </v>
   <v>       0.01422222 </v>
   <v>       0.01422222 </v>
   <v>       0.00711111 </v>
   <v>       0.01422222 </v>
   <v>       0.01422222 </v>
   <v>       0.01422222 </v>
   <v>       0.01422222 </v>
   <v>       0.00711111 </v>
   <v>       0.00711111 </v>
   <v>       0.01422222 </v>
   <v>       0.01422222 </v>
   <v>       0.00711111 </v>
   <v>       0.00711111 </v>
   <v>       0.00711111 </v>
   <v>       0.00711111 </v>
   <v>       0.01422222 </v>
   <v>       0.00711111 </v>
   <v>       0.00711111 </v>
  </varray>
 </kpoints>
 <parameters>
  <separator name="general" >
   <i type="string" name="SYSTEM">r-GeO2 ENCUT convergence test</i>
   <i type="logical" name="LCOMPAT"> F  </i>
  </separator>
  <separator name="electronic" >
   <i type="string" name="PREC">accura</i>
   <i name="ENMAX">    500.00000000</i>
   <i name="ENAUG">    644.87300000</i>
   <i name="EDIFF">      0.00010000</i>
   <i type="int" name="IALGO">    38</i>
   <i type="int" name="IWAVPR">    10</i>
   <i type="int" name="NBANDS">     8</i>
   <i name="NELECT">      8.00000000</i>
   <i type="int" name="TURBO">     0</i>
   <i type="int" name="IRESTART">     0</i>
   <i type="int" name="NREBOOT">     0</i>
   <i type="int" name="NMIN">     0</i>
   <i name="EREF">      0.00000000</i>
   <separator name="electronic smearing" >
    <i type="int" name="ISMEAR">     0</i>
    <i name="SIGMA">      0.05000000</i>
    <i name="KSPACING">      0.50000000</i>
    <i type="logical" name="KGAMMA"> T  </i>
   </separator>
   <separator name="electronic projectors" >
    <i type="logical" name="LREAL"> F  </i>
    <v name="ROPT">      0.00000000</v>
    <i type="int" name="LMAXPAW">  -100</i>
    <i type="int" name="LMAXMIX">     2</i>
    <i type="logical" name="NLSPLINE"> F  </i>
   </separator>
   <separator name="electronic startup" >
    <i type="int" name="ISTART">     0</i>
    <i type="int" name="ICHARG">     2</i>
    <i type="int" name="INIWAV">     1</i>
   </separator>
   <separator name="electronic spin" >
    <i type="int" name="ISPIN">     1</i>
    <i type="logical" name="LNONCOLLINEAR"> F  </i>
    <v name="MAGMOM">      1.00000000      1.00000000</v>
    <i name="NUPDOWN">     -1.00000000</i>
    <i type="logical" name="LSORBIT"> F  </i>
    <v name="SAXIS">      0.00000000      0.00000000      1.00000000</v>
    <i type="logical" name="LSPIRAL"> F  </i>
    <v name="QSPIRAL">      0.00000000      0.00000000      0.00000000</v>
    <i type="logical" name="LZEROZ"> F  </i>
   </separator>
   <separator name="electronic exchange-correlation" >
    <i type="logical" name="LASPH"> T  </i>
    <i type="logical" name="LMETAGGA"> F  </i>
   </separator>
   <separator name="electronic convergence" >
    <i type="int" name="NELM">    60</i>
    <i type="int" name="NELMDL">    -5</i>
    <i type="int" name="NELMIN">     2</i>
    <i name="ENINI">    500.00000000</i>
    <separator name="electronic convergence detail" >
     <i type="logical" name="LDIAG"> T  </i>
     <i type="logical" name="LSUBROT"> F  </i>
     <i name="WEIMIN">      0.00000000</i>
     <i name="EBREAK">      0.00000313</i>
     <i name="DEPER">      0.30000000</i>
     <i type="int" name="NRMM">     4</i>
     <i name="TIME">      0.40000000</i>
    </separator>
   </separator>
   <separator name="electronic mixer" >
    <i name="AMIX">      0.40000000</i>
    <i name="BMIX">      1.00000000</i>
    <i name="AMIN">      0.10000000</i>
    <i name="AMIX_MAG">      1.60000000</i>
    <i name="BMIX_MAG">      1.00000000</i>
    <separator name="electronic mixer details" >
     <i type="int" name="IMIX">     4</i>
     <i type="logical" name="MIXFIRST"> F  </i>
     <i type="int" name="MAXMIX">   -45</i>
     <i name="WC">    100.00000000</i>
     <i type="int" name="INIMIX">     1</i>
     <i type="int" name="MIXPRE">     1</i>
     <i type="int" name="MREMOVE">     5</i>
    </separator>
   </separator>
   <separator name="electronic dipolcorrection" >
    <i type="logical" name="LDIPOL"> F  </i>
    <i type="logical" name="LMONO"> F  </i>
    <i type="int" name="IDIPOL">     0</i>
    <i name="EPSILON">      1.00000000</i>
    <v name="DIPOL">   -100.00000000   -100.00000000   -100.00000000</v>
    <i name="EFIELD">      0.00000000</i>
   </separator>
  </separator>
  <separator name="grids" >
   <i type="int" name="NGX">    18</i>
   <i type="int" name="NGY">    18</i>
   <i type="int" name="NGZ">    18</i>
   <i type="int" name="NGXF">    36</i>
   <i type="int" name="NGYF">    36</i>
   <i type="int" name="NGZF">    36</i>
   <i type="logical" name="ADDGRID"> F  </i>
  </separator>
  <separator name="ionic" >
   <i type="int" name="NSW">     0</i>
   <i type="int" name="IBRION">    -1</i>
   <i type="int" name="MDALGO">     0</i>
   <i type="int" name="ISIF">     2</i>
   <i name="PSTRESS">      0.00000000</i>
   <i name="EDIFFG">      0.00100000</i>
   <i type="int" name="NFREE">     0</i>
   <i name="POTIM">      0.50000000</i>
   <i name="SMASS">     -3.00000000</i>
   <i name="SCALEE">      1.00000000</i>
  </separator>
  <separator name="ionic md" >
   <i name="TEBEG">      0.00010000</i>
   <i name="TEEND">      0.00010000</i>
   <i type="int" name="NBLOCK">     1</i>
   <i type="int" name="KBLOCK">     1</i>
   <i type="int" name="NPACO">   256</i>
   <i name="APACO">     16.00000000</i>
  </separator>
  <separator name="symmetry" >
   <i type="int" name="ISYM">     2</i>
   <i name="SYMPREC">      0.00001000</i>
  </separator>
  <separator name="dos" >
   <i type="int" name="LORBIT">    11</i>
   <v name="RWIGS">     -1.00000000</v>
   <i type="int" name="NEDOS">   301</i>
   <i name="EMIN">     10.00000000</i>
   <i name="EMAX">    -10.00000000</i>
   <i name="EFERMI">      0.00000000</i>
  </separator>
  <separator name="writing" >
   <i type="int" name="NWRITE">     2</i>
   <i type="logical" name="LWAVE"> F  </i>
   <i type="logical" name="LDOWNSAMPLE"> F  </i>
   <i type="logical" name="LCHARG"> F  </i>
   <i type="logical" name="LPARD"> F  </i>
   <i type="logical" name="LVTOT"> F  </i>
   <i type="logical" name="LVHAR"> F  </i>
   <i type="logical" name="LELF"> F  </i>
   <i type="logical" name="LOPTICS"> F  </i>
   <v name="STM">      0.00000000      0.00000000      0.00000000      0.00000000      0.00000000      0.00000000      0.00000000</v>
  </separator>
  <separator name="performance" >
   <i type="int" name="NPAR">     2</i>
   <i type="int" name="NSIM">     4</i>
   <i type="int" name="NBLK">    -1</i>
   <i type="logical" name="LPLANE"> T  </i>
   <i type="logical" name="LSCALAPACK"> T  </i>
   <i type="logical" name="LSCAAWARE"> F  </i>
   <i type="logical" name="LSCALU"> F  </i>
   <i type="logical" name="LASYNC"> F  </i>
   <i type="logical" name="LORBITALREAL"> F  </i>
  </separator>
  <separator name="miscellaneous" >
   <i type="int" name="IDIOT">     3</i>
   <i type="int" name="ISPECIAL">     0</i>
   <i type="logical" name="LMUSIC"> F  </i>
   <v name="POMASS">     12.01100000</v>
   <v name="DARWINR">      0.00000000</v>
   <v name="DARWINV">      1.00000000</v>
   <i type="logical" name="LCORR"> T  </i>
  </separator>
  <i type="logical" name="GGA_COMPAT"> T  </i>
  <i type="logical" name="LBERRY"> F  </i>
  <i type="int" name="ICORELEVEL">     0</i>
  <i type="logical" name="LDAU"> F  </i>
  <i type="int" name="I_CONSTRAINED_M">     0</i>
  <separator name="electronic exchange-correlation" >
   <i type="string" name="GGA">--</i>
   <i type="int" name="VOSKOWN">     0</i>
   <i type="logical" name="LHFCALC"> F  </i>
   <i type="string" name="PRECFOCK"></i>
   <i type="logical" name="LSYMGRAD"> F  </i>
   <i type="logical" name="LHFONE"> F  </i>
   <i type="logical" name="LRHFCALC"> F  </i>
   <i type="logical" name="LTHOMAS"> F  </i>
   <i type="logical" name="LMODELHF"> F  </i>
   <i name="ENCUT4O">     -1.00000000</i>
   <i type="int" name="EXXOEP">     0</i>
   <i type="int" name="FOURORBIT">     0</i>
   <i name="AEXX">      0.00000000</i>
   <i name="HFALPHA">      0.00000000</i>
   <i name="MCALPHA">      0.00000000</i>
   <i name="ALDAX">      1.00000000</i>
   <i name="AGGAX">      1.00000000</i>
   <i name="ALDAC">      1.00000000</i>
   <i name="AGGAC">      1.00000000</i>
   <i type="int" name="NKREDX">     1</i>
   <i type="int" name="NKREDY">     1</i>
   <i type="int" name="NKREDZ">     1</i>
   <i type="logical" name="SHIFTRED"> F  </i>
   <i type="logical" name="ODDONLY"> F  </i>
   <i type="logical" name="EVENONLY"> F  </i>
   <i type="int" name="LMAXFOCK">     0</i>
   <i type="int" name="NMAXFOCKAE">     0</i>
   <i type="logical" name="LFOCKAEDFT"> F  </i>
   <i name="HFSCREEN">      0.00000000</i>
   <i name="HFSCREENC">      0.00000000</i>
   <i type="int" name="NBANDSGWLOW">     0</i>
  </separator>
  <separator name="vdW DFT" >
   <i type="logical" name="LUSE_VDW"> F  </i>
   <i name="Zab_VDW">     -0.84910000</i>
   <i name="PARAM1">      0.12340000</i>
   <i name="PARAM2">      1.00000000</i>
   <i name="PARAM3">      0.00000000</i>
  </separator>
  <separator name="model GW" >
   <i type="int" name="MODEL_GW">     0</i>
   <i name="MODEL_EPS0">      3.38597637</i>
   <i name="MODEL_ALPHA">      1.00000000</i>
  </separator>
  <separator name="linear response parameters" >
   <i type="logical" name="LEPSILON"> F  </i>
   <i type="logical" name="LRPA"> F  </i>
   <i type="logical" name="LNABLA"> F  </i>
   <i type="logical" name="LVEL"> F  </i>
   <i type="int" name="KINTER">     0</i>
   <i name="CSHIFT">      0.10000000</i>
   <i name="OMEGAMAX">     -1.00000000</i>
   <i name="DEG_THRESHOLD">      0.00200000</i>
   <i name="RTIME">     -0.10000000</i>
   <i name="WPLASMAI">      0.00000000</i>
   <v name="DFIELD">      0.00000000      0.00000000      0.00000000</v>
   <v name="WPLASMA">      0.00000000      0.00000000      0.00000000      0.00000000      0.00000000      0.00000000      0.00000000      0.00000000      0.00000000</v>
  </separator>
  <separator name="orbital magnetization" >
   <i type="logical" name="NUCIND"> F  </i>
   <v name="MAGPOS">      0.00000000      0.00000000      0.00000000</v>
   <i type="logical" name="LNICSALL"> T  </i>
   <i type="logical" name="ORBITALMAG"> F  </i>
   <i type="logical" name="LMAGBLOCH"> F  </i>
   <i type="logical" name="LCHIMAG"> F  </i>
   <i type="logical" name="LGAUGE"> T  </i>
   <i type="int" name="MAGATOM">     0</i>
   <v name="MAGDIPOL">      0.00000000      0.00000000      0.00000000</v>
   <v name="AVECCONST">      0.00000000      0.00000000      0.00000000</v>
  </separator>
  <separator name="response functions" >
   <i type="logical" name="LADDER"> F  </i>
   <i type="logical" name="LRPAFORCE"> F  </i>
   <i type="logical" name="LFXC"> F  </i>
   <i type="logical" name="LHARTREE"> T  </i>
   <i type="int" name="IBSE">     0</i>
   <v type="int" name="KPOINT">    -1     0     0     0</v>
   <i type="logical" name="LTCTE"> F  </i>
   <i type="logical" name="LTETE"> F  </i>
   <i type="logical" name="LTRIPLET"> F  </i>
   <i type="logical" name="LFXCEPS"> F  </i>
   <i type="logical" name="LFXHEG"> F  </i>
   <i type="int" name="NATURALO">     2</i>
   <i type="logical" name="L2ORDER"> F  </i>
   <i type="logical" name="LMP2LT"> F  </i>
   <i type="logical" name="LUSEW"> F  </i>
   <i name="ENCUTGW">     -2.00000000</i>
   <i name="ENCUTGWSOFT">     -2.00000000</i>
   <i name="ENCUTLF">     -1.00000000</i>
   <i type="int" name="LMAXMP2">    -1</i>
   <i name="SCISSOR">      0.00000000</i>
   <i type="int" name="NOMEGA">     0</i>
   <i type="int" name="NOMEGAR">     0</i>
   <i type="int" name="NBANDSGW">    -1</i>
   <i type="int" name="NBANDSO">    -1</i>
   <i type="int" name="NBANDSV">    -1</i>
   <i type="int" name="NELM">     1</i>
   <i type="int" name="NELMHF">     1</i>
   <i type="int" name="DIM">     3</i>
   <i type="int" name="ANTIRES">     0</i>
   <i name="OMEGAMAX">    -30.00000000</i>
   <i name="OMEGAMIN">    -30.00000000</i>
   <i name="OMEGATL">   -200.00000000</i>
   <i type="int" name="OMEGAGRID">   140</i>
   <i name="CSHIFT">     -0.10000000</i>
   <i type="logical" name="SELFENERGY"> F  </i>
   <i type="logical" name="LSPECTRAL"> F  </i>
   <i type="logical" name="LSPECTRALGW"> F  </i>
   <i type="logical" name="LSINGLES"> F  </i>
   <i type="logical" name="LFERMIGW"> F  </i>
   <i type="logical" name="ODDONLYGW"> F  </i>
   <i type="logical" name="EVENONLYGW"> F  </i>
   <i type="int" name="NKREDLFX">     1</i>
   <i type="int" name="NKREDLFY">     1</i>
   <i type="int" name="NKREDLFZ">     1</i>
   <i type="int" name="MAXMEM">  2800</i>
   <i type="int" name="TELESCOPE">     0</i>
   <i type="int" name="TAUPAR">     1</i>
   <i type="int" name="OMEGAPAR">    -1</i>
   <i name="LAMBDA">      1.00000000</i>
  </separator>
  <separator name="External order field" >
   <i name="OFIELD_KAPPA">      0.00000000</i>
   <v name="OFIELD_K">      0.00000000      0.00000000      0.00000000</v>
   <i name="OFIELD_Q6_NEAR">      0.00000000</i>
   <i name="OFIELD_Q6_FAR">      0.00000000</i>
   <i name="OFIELD_A">      0.00000000</i>
  </separator>
 </parameters>
 <atominfo>
  <atoms>       2 </atoms>
  <types>       1 </types>
  <array name="atoms" >
   <dimension dim="1">ion</dimension>
   <field type="string">element</field>
   <field type="int">atomtype</field>
   <set>
    <rc><c>C </c><c>   1</c></rc>
    <rc><c>C </c><c>   1</c></rc>
   </set>
  </array>
  <array name="atomtypes" >
   <dimension dim="1">type</dimension>
   <field type="int">atomspertype</field>
   <field type="string">element</field>
   <field>mass</field>
   <field>valence</field>
   <field type="string">pseudopotential</field>
   <set>
    <rc><c>   2</c><c>C </c><c>     12.01100000</c><c>      4.00000000</c><c>  PAW_PBE C 08Apr2002                   </c></rc>
   </set>
  </array>
 </atominfo>
 <structure name="initialpos" >
  <crystal>
   <varray name="basis" >
    <v>       2.18050236       0.00000000       1.25891346 </v>
    <v>       0.72683412       2.05579703       1.25891346 </v>
    <v>       0.00000000       0.00000000       2.51782692 </v>
   </varray>
   <i name="volume">     11.28658789 </i>
   <varray name="rec_basis" >
    <v>       0.45860991      -0.16214311       0.00000000 </v>
    <v>       0.00000000       0.48642934       0.00000000 </v>
    <v>      -0.22930496      -0.16214311       0.39716789 </v>
   </varray>
  </crystal>
  <varray name="positions" >
   <v>       0.87500000       0.87500000       0.87500000 </v>
   <v>       0.12500000       0.12500000       0.12500000 </v>
  </varray>
 </structure>
 <calculation>
  <scstep>
   <time name="dav">    0.18    0.18</time>
   <time name="total">    0.21    0.21</time>
   <energy>
    <i name="alphaZ">      9.98169518 </i>
    <i name="ewald">   -348.55062700 </i>
    <i name="hartreedc">    -17.50286058 </i>
    <i name="XCdc">     27.43730065 </i>
    <i name="pawpsdc">    217.04409276 </i>
    <i name="pawaedc">   -218.18290438 </i>
    <i name="eentropy">     -0.00004301 </i>
    <i name="bandstr">      4.19582570 </i>
    <i name="atom">    294.29684335 </i>
    <i name="e_fr_energy">    -31.28067733 </i>
    <i name="e_wo_entrp">    -31.28063432 </i>
    <i name="e_0_energy">    -31.28065583 </i>
   </energy>
  </scstep>
  <scstep>
   <time name="dav">    0.26    0.26</time>
   <time name="total">    0.26    0.26</time>
   <energy>
    <i name="e_fr_energy">    -45.27749229 </i>
    <i name="e_wo_entrp">    -45.27749229 </i>
    <i name="e_0_energy">    -45.27749229 </i>
   </energy>
  </scstep>
  <scstep>
   <time name="dav">    0.17    0.17</time>
   <time name="total">    0.17    0.17</time>
   <energy>
    <i name="e_fr_energy">    -45.35349141 </i>
    <i name="e_wo_entrp">    -45.35349141 </i>
    <i name="e_0_energy">    -45.35349141 </i>
   </energy>
  </scstep>
  <scstep>
   <time name="dav">    0.21    0.21</time>
   <time name="total">    0.22    0.22</time>
   <energy>
    <i name="e_fr_energy">    -45.35361639 </i>
    <i name="e_wo_entrp">    -45.35361639 </i>
    <i name="e_0_energy">    -45.35361639 </i>
   </energy>
  </scstep>
  <scstep>
   <time name="dav">    0.16    0.16</time>
   <time name="total">    0.17    0.17</time>
   <energy>
    <i name="e_fr_energy">    -45.35361645 </i>
    <i name="e_wo_entrp">    -45.35361645 </i>
    <i name="e_0_energy">    -45.35361645 </i>
   </energy>
  </scstep>
  <scstep>
   <time name="dav">    0.17    0.17</time>
   <time name="total">    0.21    0.21</time>
   <energy>
    <i name="e_fr_energy">    -44.65681180 </i>
    <i name="e_wo_entrp">    -44.65681180 </i>
    <i name="e_0_energy">    -44.65681180 </i>
   </energy>
  </scstep>
  <scstep>
   <time name="dav">    0.19    0.19</time>
   <time name="total">    0.24    0.24</time>
   <energy>
    <i name="e_fr_energy">    -44.41893283 </i>
    <i name="e_wo_entrp">    -44.41893283 </i>
    <i name="e_0_energy">    -44.41893283 </i>
   </energy>
  </scstep>
  <scstep>
   <time name="dav">    0.17    0.17</time>
   <time name="total">    0.22    0.22</time>
   <energy>
    <i name="e_fr_energy">    -44.42187789 </i>
    <i name="e_wo_entrp">    -44.42187789 </i>
    <i name="e_0_energy">    -44.42187789 </i>
   </energy>
  </scstep>
  <scstep>
   <time name="dav">    0.22    0.22</time>
   <time name="total">    0.26    0.26</time>
   <energy>
    <i name="alphaZ">      9.98169518 </i>
    <i name="ewald">   -348.55062700 </i>
    <i name="hartreedc">    -28.63707351 </i>
    <i name="XCdc">     28.46094734 </i>
    <i name="pawpsdc">    843.15020885 </i>
    <i name="pawaedc">   -844.50538418 </i>
    <i name="eentropy">     -0.00000000 </i>
    <i name="bandstr">      1.38147378 </i>
    <i name="atom">    294.29684335 </i>
    <i name="e_fr_energy">    -44.42191619 </i>
    <i name="e_wo_entrp">    -44.42191619 </i>
    <i name="e_0_energy">    -44.42191619 </i>
   </energy>
  </scstep>
  <structure>
   <crystal>
    <varray name="basis" >
     <v>       2.18050236       0.00000000       1.25891346 </v>
     <v>       0.72683412       2.05579703       1.25891346 </v>
     <v>       0.00000000       0.00000000       2.51782692 </v>
    </varray>
    <i name="volume">     11.28658789 </i>
    <varray name="rec_basis" >
     <v>       0.45860991      -0.16214311       0.00000000 </v>
     <v>       0.00000000       0.48642934       0.00000000 </v>
     <v>      -0.22930496      -0.16214311       0.39716789 </v>
    </varray>
   </crystal>
   <varray name="positions" >
    <v>       0.87500000       0.87500000       0.87500000 </v>
    <v>       0.12500000       0.12500000       0.12500000 </v>
   </varray>
  </structure>
  <varray name="forces" >
   <v>       0.00000000      -0.00000000       0.00000000 </v>
   <v>      -0.00000000       0.00000000      -0.00000000 </v>
  </varray>
  <varray name="stress" >
   <v>   -2212.54841436       0.00000000      -0.00000000 </v>
   <v>       0.00000000   -2212.54774666       0.00000000 </v>
   <v>      -0.00000000      -0.00000000   -2212.54783609 </v>
  </varray>
  <energy>
   <i name="e_fr_energy">    -44.42191619 </i>
   <i name="e_wo_entrp">    -44.42191619 </i>
   <i name="e_0_energy">     -0.00000000 </i>
  </energy>
  <time name="totalsc">    2.07    2.07</time>
  <eigenvalues>
   <array>
    <dimension dim="1">band</dimension>
    <dimension dim="2">kpoint</dimension>
    <dimension dim="3">spin</dimension>
    <field>eigene</field>
    <field>occ</field>
    <set>
     <set comment="spin 1">
      <set comment="kpoint 1">
       <r>  -12.1594    1.0000 </r>
       <r>    8.8986    1.0000 </r>
       <r>    8.8986    1.0000 </r>
       <r>    8.8986    1.0000 </r>
       <r>   15.0034    0.0000 </r>
       <r>   15.0034    0.0000 </r>
       <r>   15.0034    0.0000 </r>
       <r>   22.8876    0.0000 </r>
      </set>
      <set comment="kpoint 2">
       <r>  -12.0382    1.0000 </r>
       <r>    8.1302    1.0000 </r>
       <r>    8.7000    1.0000 </r>
       <r>    8.7000    1.0000 </r>
       <r>   15.2700    0.0000 </r>
       <r>   15.2700    0.0000 </r>
       <r>   15.4747    0.0000 </r>
       <r>   22.9980    0.0000 </r>
      </set>
      <set comment="kpoint 3">
       <r>  -11.6756    1.0000 </r>
       <r>    6.3649    1.0000 </r>
       <r>    8.2157    1.0000 </r>
       <r>    8.2157    1.0000 </r>
       <r>   15.9259    0.0000 </r>
       <r>   15.9259    0.0000 </r>
       <r>   16.3760    0.0000 </r>
       <r>   23.3273    0.0000 </r>
      </set>
      <set comment="kpoint 4">
       <r>  -11.0753    1.0000 </r>
       <r>    4.2302    1.0000 </r>
       <r>    7.6376    1.0000 </r>
       <r>    7.6376    1.0000 </r>
       <r>   16.6918    0.0000 </r>
       <r>   16.6918    0.0000 </r>
       <r>   17.1685    0.0000 </r>
       <r>   23.8491    0.0000 </r>
      </set>
      <set comment="kpoint 5">
       <r>  -10.2452    1.0000 </r>
       <r>    2.0134    1.0000 </r>
       <r>    7.0953    1.0000 </r>
       <r>    7.0953    1.0000 </r>
       <r>   17.3349    0.0000 </r>
       <r>   17.3349    0.0000 </r>
       <r>   17.7220    0.0000 </r>
       <r>   24.4815    0.0000 </r>
      </set>
      <set comment="kpoint 6">
       <r>   -9.2025    1.0000 </r>
       <r>   -0.1405    1.0000 </r>
       <r>    6.6557    1.0000 </r>
       <r>    6.6557    1.0000 </r>
       <r>   17.7403    0.0000 </r>
       <r>   17.7403    0.0000 </r>
       <r>   18.0701    0.0000 </r>
       <r>   25.0931    0.0000 </r>
      </set>
      <set comment="kpoint 7">
       <r>   -7.9953    1.0000 </r>
       <r>   -2.1170    1.0000 </r>
       <r>    6.3509    1.0000 </r>
       <r>    6.3509    1.0000 </r>
       <r>   17.9302    0.0000 </r>
       <r>   17.9303    0.0000 </r>
       <r>   18.2705    0.0000 </r>
       <r>   25.5445    0.0000 </r>
      </set>
      <set comment="kpoint 8">
       <r>   -6.8483    1.0000 </r>
       <r>   -3.6563    1.0000 </r>
       <r>    6.1956    1.0000 </r>
       <r>    6.1956    1.0000 </r>
       <r>   17.9922    0.0000 </r>
       <r>   17.9922    0.0000 </r>
       <r>   18.3621    0.0000 </r>
       <r>   25.7734    0.0000 </r>
      </set>
      <set comment="kpoint 9">
       <r>  -11.9978    1.0000 </r>
       <r>    8.3286    1.0000 </r>
       <r>    8.3286    1.0000 </r>
       <r>    8.5057    1.0000 </r>
       <r>   14.9021    0.0000 </r>
       <r>   15.7217    0.0000 </r>
       <r>   15.7217    0.0000 </r>
       <r>   22.9992    0.0000 </r>
      </set>
      <set comment="kpoint 10">
       <r>  -11.7157    1.0000 </r>
       <r>    6.9534    1.0000 </r>
       <r>    7.7512    1.0000 </r>
       <r>    8.3044    1.0000 </r>
       <r>   15.0980    0.0000 </r>
       <r>   16.4951    0.0000 </r>
       <r>   16.5527    0.0000 </r>
       <r>   23.1476    0.0000 </r>
      </set>
      <set comment="kpoint 11">
       <r>  -11.1946    1.0000 </r>
       <r>    4.9620    1.0000 </r>
       <r>    7.1462    1.0000 </r>
       <r>    7.8575    1.0000 </r>
       <r>   15.7180    0.0000 </r>
       <r>   17.3299    0.0000 </r>
       <r>   17.3904    0.0000 </r>
       <r>   23.4324    0.0000 </r>
      </set>
      <set comment="kpoint 12">
       <r>  -10.4409    1.0000 </r>
       <r>    2.7916    1.0000 </r>
       <r>    6.6208    1.0000 </r>
       <r>    7.2873    1.0000 </r>
       <r>   16.4508    0.0000 </r>
       <r>   18.0075    0.0000 </r>
       <r>   18.0092    0.0000 </r>
       <r>   23.8484    0.0000 </r>
      </set>
      <set comment="kpoint 13">
       <r>   -9.4676    1.0000 </r>
       <r>    0.6283    1.0000 </r>
       <r>    6.2295    1.0000 </r>
       <r>    6.7273    1.0000 </r>
       <r>   17.0539    0.0000 </r>
       <r>   18.4046    0.0000 </r>
       <r>   18.4075    0.0000 </r>
       <r>   24.4040    0.0000 </r>
      </set>
      <set comment="kpoint 14">
       <r>   -8.3077    1.0000 </r>
       <r>   -1.4069    1.0000 </r>
       <r>    5.9973    1.0000 </r>
       <r>    6.2508    1.0000 </r>
       <r>   17.4510    0.0000 </r>
       <r>   18.5264    0.0000 </r>
       <r>   18.6409    0.0000 </r>
       <r>   25.0271    0.0000 </r>
      </set>
      <set comment="kpoint 15">
       <r>   -7.0871    1.0000 </r>
       <r>   -3.1413    1.0000 </r>
       <r>    5.8975    1.0000 </r>
       <r>    5.9325    1.0000 </r>
       <r>   17.7027    0.0000 </r>
       <r>   18.4640    0.0000 </r>
       <r>   18.7564    0.0000 </r>
       <r>   25.5246    0.0000 </r>
      </set>
      <set comment="kpoint 16">
       <r>   -6.5440    1.0000 </r>
       <r>   -3.8139    1.0000 </r>
       <r>    5.6900    1.0000 </r>
       <r>    6.0339    1.0000 </r>
       <r>   17.8925    0.0000 </r>
       <r>   18.3065    0.0000 </r>
       <r>   18.7789    0.0000 </r>
       <r>   25.7023    0.0000 </r>
      </set>
      <set comment="kpoint 17">
       <r>   -7.4816    1.0000 </r>
       <r>   -2.6162    1.0000 </r>
       <r>    5.6423    1.0000 </r>
       <r>    6.2925    1.0000 </r>
       <r>   18.0455    0.0000 </r>
       <r>   18.0838    0.0000 </r>
       <r>   18.7123    0.0000 </r>
       <r>   25.5016    0.0000 </r>
      </set>
      <set comment="kpoint 18">
       <r>   -8.7115    1.0000 </r>
       <r>   -0.7472    1.0000 </r>
       <r>    5.7613    1.0000 </r>
       <r>    6.6920    1.0000 </r>
       <r>   17.7588    0.0000 </r>
       <r>   18.1101    0.0000 </r>
       <r>   18.5350    0.0000 </r>
       <r>   25.0001    0.0000 </r>
      </set>
      <set comment="kpoint 19">
       <r>   -9.8153    1.0000 </r>
       <r>    1.3447    1.0000 </r>
       <r>    6.0468    1.0000 </r>
       <r>    7.2045    1.0000 </r>
       <r>   17.2651    0.0000 </r>
       <r>   17.9922    0.0000 </r>
       <r>   18.1870    0.0000 </r>
       <r>   24.3904    0.0000 </r>
      </set>
      <set comment="kpoint 20">
       <r>  -10.7175    1.0000 </r>
       <r>    3.5248    1.0000 </r>
       <r>    6.4881    1.0000 </r>
       <r>    7.7808    1.0000 </r>
       <r>   16.5921    0.0000 </r>
       <r>   17.5514    0.0000 </r>
       <r>   17.6631    0.0000 </r>
       <r>   23.8480    0.0000 </r>
      </set>
      <set comment="kpoint 21">
       <r>  -11.3947    1.0000 </r>
       <r>    5.6525    1.0000 </r>
       <r>    7.0613    1.0000 </r>
       <r>    8.3299    1.0000 </r>
       <r>   15.8641    0.0000 </r>
       <r>   16.7388    0.0000 </r>
       <r>   17.0179    0.0000 </r>
       <r>   23.4320    0.0000 </r>
      </set>
      <set comment="kpoint 22">
       <r>  -11.8365    1.0000 </r>
       <r>    7.3968    1.0000 </r>
       <r>    7.7947    1.0000 </r>
       <r>    8.6946    1.0000 </r>
       <r>   15.3356    0.0000 </r>
       <r>   15.8870    0.0000 </r>
       <r>   16.1730    0.0000 </r>
       <r>   23.1450    0.0000 </r>
      </set>
      <set comment="kpoint 23">
       <r>  -11.5146    1.0000 </r>
       <r>    7.1210    1.0000 </r>
       <r>    7.1210    1.0000 </r>
       <r>    7.4234    1.0000 </r>
       <r>   14.6417    0.0000 </r>
       <r>   17.3666    0.0000 </r>
       <r>   17.3666    0.0000 </r>
       <r>   22.9074    0.0000 </r>
      </set>
      <set comment="kpoint 24">
       <r>  -11.0740    1.0000 </r>
       <r>    5.5718    1.0000 </r>
       <r>    6.4906    1.0000 </r>
       <r>    7.1573    1.0000 </r>
       <r>   14.7998    0.0000 </r>
       <r>   18.2821    0.0000 </r>
       <r>   18.2980    0.0000 </r>
       <r>   22.6493    0.0000 </r>
      </set>
      <set comment="kpoint 25">
       <r>  -10.3992    1.0000 </r>
       <r>    3.5771    1.0000 </r>
       <r>    5.9595    1.0000 </r>
       <r>    6.6872    1.0000 </r>
       <r>   15.4110    0.0000 </r>
       <r>   19.0038    0.0000 </r>
       <r>   19.0750    0.0000 </r>
       <r>   22.5165    0.0000 </r>
      </set>
      <set comment="kpoint 26">
       <r>   -9.5008    1.0000 </r>
       <r>    1.4898    1.0000 </r>
       <r>    5.5798    1.0000 </r>
       <r>    6.0795    1.0000 </r>
       <r>   16.1214    0.0000 </r>
       <r>   19.4798    0.0000 </r>
       <r>   19.5514    0.0000 </r>
       <r>   22.7363    0.0000 </r>
      </set>
      <set comment="kpoint 27">
       <r>   -8.4026    1.0000 </r>
       <r>   -0.5406    1.0000 </r>
       <r>    5.3765    1.0000 </r>
       <r>    5.4749    1.0000 </r>
       <r>   16.6750    0.0000 </r>
       <r>   19.6974    0.0000 </r>
       <r>   19.7620    0.0000 </r>
       <r>   23.4309    0.0000 </r>
      </set>
      <set comment="kpoint 28">
       <r>   -7.1814    1.0000 </r>
       <r>   -2.3684    1.0000 </r>
       <r>    4.9552    1.0000 </r>
       <r>    5.3575    1.0000 </r>
       <r>   17.0523    0.0000 </r>
       <r>   19.5874    0.0000 </r>
       <r>   19.9073    0.0000 </r>
       <r>   24.4241    0.0000 </r>
      </set>
      <set comment="kpoint 29">
       <r>   -6.2565    1.0000 </r>
       <r>   -3.5382    1.0000 </r>
       <r>    4.5680    1.0000 </r>
       <r>    5.5200    1.0000 </r>
       <r>   17.3601    0.0000 </r>
       <r>   19.3201    0.0000 </r>
       <r>   19.9547    0.0000 </r>
       <r>   25.2447    0.0000 </r>
      </set>
      <set comment="kpoint 30">
       <r>   -6.7964    1.0000 </r>
       <r>   -2.8680    1.0000 </r>
       <r>    4.3422    1.0000 </r>
       <r>    5.8507    1.0000 </r>
       <r>   17.6665    0.0000 </r>
       <r>   18.9492    0.0000 </r>
       <r>   19.9149    0.0000 </r>
       <r>   25.3461    0.0000 </r>
      </set>
      <set comment="kpoint 31">
       <r>   -8.0061    1.0000 </r>
       <r>   -1.1597    1.0000 </r>
       <r>    4.2964    1.0000 </r>
       <r>    6.3256    1.0000 </r>
       <r>   17.9513    0.0000 </r>
       <r>   18.4643    0.0000 </r>
       <r>   19.7602    0.0000 </r>
       <r>   24.7482    0.0000 </r>
      </set>
      <set comment="kpoint 32">
       <r>   -9.1578    1.0000 </r>
       <r>    0.8291    1.0000 </r>
       <r>    4.4432    1.0000 </r>
       <r>    6.9040    1.0000 </r>
       <r>   17.8278    0.0000 </r>
       <r>   18.1203    0.0000 </r>
       <r>   19.3927    0.0000 </r>
       <r>   24.0206    0.0000 </r>
      </set>
      <set comment="kpoint 33">
       <r>  -10.1256    1.0000 </r>
       <r>    2.8960    1.0000 </r>
       <r>    4.8028    1.0000 </r>
       <r>    7.5177    1.0000 </r>
       <r>   17.0609    0.0000 </r>
       <r>   18.0567    0.0000 </r>
       <r>   18.6888    0.0000 </r>
       <r>   23.5921    0.0000 </r>
      </set>
      <set comment="kpoint 34">
       <r>  -10.8758    1.0000 </r>
       <r>    4.7074    1.0000 </r>
       <r>    5.5565    1.0000 </r>
       <r>    8.0501    1.0000 </r>
       <r>   16.3172    0.0000 </r>
       <r>   17.6858    0.0000 </r>
       <r>   17.7147    0.0000 </r>
       <r>   23.4741    0.0000 </r>
      </set>
      <set comment="kpoint 35">
       <r>  -10.7146    1.0000 </r>
       <r>    5.8351    1.0000 </r>
       <r>    5.8351    1.0000 </r>
       <r>    5.8452    1.0000 </r>
       <r>   14.3226    0.0000 </r>
       <r>   19.3572    0.0000 </r>
       <r>   19.3572    0.0000 </r>
       <r>   21.7376    0.0000 </r>
      </set>
      <set comment="kpoint 36">
       <r>  -10.1205    1.0000 </r>
       <r>    4.1595    1.0000 </r>
       <r>    5.2814    1.0000 </r>
       <r>    5.6316    1.0000 </r>
       <r>   14.4957    0.0000 </r>
       <r>   20.2604    0.0000 </r>
       <r>   20.2902    0.0000 </r>
       <r>   21.0148    0.0000 </r>
      </set>
      <set comment="kpoint 37">
       <r>   -9.3002    1.0000 </r>
       <r>    2.2874    1.0000 </r>
       <r>    4.8851    1.0000 </r>
       <r>    5.0687    1.0000 </r>
       <r>   15.1253    0.0000 </r>
       <r>   20.6556    0.0000 </r>
       <r>   20.9250    0.0000 </r>
       <r>   20.9838    0.0000 </r>
      </set>
      <set comment="kpoint 38">
       <r>   -8.2725    1.0000 </r>
       <r>    0.3705    1.0000 </r>
       <r>    4.3750    1.0000 </r>
       <r>    4.6740    1.0000 </r>
       <r>   15.7945    0.0000 </r>
       <r>   21.0271    0.0000 </r>
       <r>   21.1846    0.0000 </r>
       <r>   21.4246    0.0000 </r>
      </set>
      <set comment="kpoint 39">
       <r>   -7.0881    1.0000 </r>
       <r>   -1.4479    1.0000 </r>
       <r>    3.7103    1.0000 </r>
       <r>    4.6584    1.0000 </r>
       <r>   16.2734    0.0000 </r>
       <r>   21.1098    0.0000 </r>
       <r>   21.4099    0.0000 </r>
       <r>   22.3862    0.0000 </r>
      </set>
      <set comment="kpoint 40">
       <r>   -5.9764    1.0000 </r>
       <r>   -2.8809    1.0000 </r>
       <r>    3.1623    1.0000 </r>
       <r>    4.8367    1.0000 </r>
       <r>   16.6433    0.0000 </r>
       <r>   20.7927    0.0000 </r>
       <r>   21.5155    0.0000 </r>
       <r>   23.8515    0.0000 </r>
      </set>
      <set comment="kpoint 41">
       <r>   -5.9929    1.0000 </r>
       <r>   -2.8454    1.0000 </r>
       <r>    2.7801    1.0000 </r>
       <r>    5.1954    1.0000 </r>
       <r>   17.0288    0.0000 </r>
       <r>   20.3015    0.0000 </r>
       <r>   21.5119    0.0000 </r>
       <r>   24.9034    0.0000 </r>
      </set>
      <set comment="kpoint 42">
       <r>   -7.1072    1.0000 </r>
       <r>   -1.3739    1.0000 </r>
       <r>    2.5968    1.0000 </r>
       <r>    5.7080    1.0000 </r>
       <r>   17.4565    0.0000 </r>
       <r>   19.6479    0.0000 </r>
       <r>   21.3812    0.0000 </r>
       <r>   24.5708    0.0000 </r>
      </set>
      <set comment="kpoint 43">
       <r>   -8.2859    1.0000 </r>
       <r>    0.4490    1.0000 </r>
       <r>    2.6576    1.0000 </r>
       <r>    6.3274    1.0000 </r>
       <r>   17.8612    0.0000 </r>
       <r>   18.8241    0.0000 </r>
       <r>   20.9367    0.0000 </r>
       <r>   23.7326    0.0000 </r>
      </set>
      <set comment="kpoint 44">
       <r>   -9.3088    1.0000 </r>
       <r>    2.0982    1.0000 </r>
       <r>    3.2200    1.0000 </r>
       <r>    6.9742    1.0000 </r>
       <r>   17.8967    0.0000 </r>
       <r>   18.1087    0.0000 </r>
       <r>   19.9464    0.0000 </r>
       <r>   23.4196    0.0000 </r>
      </set>
      <set comment="kpoint 45">
       <r>   -9.6075    1.0000 </r>
       <r>    3.9371    1.0000 </r>
       <r>    4.6968    1.0000 </r>
       <r>    4.6968    1.0000 </r>
       <r>   14.0553    0.0000 </r>
       <r>   19.7657    0.0000 </r>
       <r>   21.4262    0.0000 </r>
       <r>   21.4262    0.0000 </r>
      </set>
      <set comment="kpoint 46">
       <r>   -8.8676    1.0000 </r>
       <r>    2.5826    1.0000 </r>
       <r>    4.1777    1.0000 </r>
       <r>    4.2674    1.0000 </r>
       <r>   14.2883    0.0000 </r>
       <r>   19.0199    0.0000 </r>
       <r>   22.2812    0.0000 </r>
       <r>   22.2854    0.0000 </r>
      </set>
      <set comment="kpoint 47">
       <r>   -7.9158    1.0000 </r>
       <r>    1.0018    1.0000 </r>
       <r>    3.4020    1.0000 </r>
       <r>    4.0257    1.0000 </r>
       <r>   14.9422    0.0000 </r>
       <r>   18.9833    0.0000 </r>
       <r>   22.7331    0.0000 </r>
       <r>   22.8247    0.0000 </r>
      </set>
      <set comment="kpoint 48">
       <r>   -6.7881    1.0000 </r>
       <r>   -0.6163    1.0000 </r>
       <r>    2.5529    1.0000 </r>
       <r>    3.9855    1.0000 </r>
       <r>   15.5290    0.0000 </r>
       <r>   19.8664    0.0000 </r>
       <r>   22.7675    0.0000 </r>
       <r>   23.1227    0.0000 </r>
      </set>
      <set comment="kpoint 49">
       <r>   -5.6179    1.0000 </r>
       <r>   -2.0717    1.0000 </r>
       <r>    1.8086    1.0000 </r>
       <r>    4.1475    1.0000 </r>
       <r>   15.9387    0.0000 </r>
       <r>   21.4698    0.0000 </r>
       <r>   22.4527    0.0000 </r>
       <r>   23.3008    0.0000 </r>
      </set>
      <set comment="kpoint 50">
       <r>   -5.1479    1.0000 </r>
       <r>   -2.5744    1.0000 </r>
       <r>    1.2581    1.0000 </r>
       <r>    4.5003    1.0000 </r>
       <r>   16.3452    0.0000 </r>
       <r>   21.8600    0.0000 </r>
       <r>   22.8965    0.0000 </r>
       <r>   23.7907    0.0000 </r>
      </set>
      <set comment="kpoint 51">
       <r>   -6.0560    1.0000 </r>
       <r>   -1.4563    1.0000 </r>
       <r>    0.9726    1.0000 </r>
       <r>    5.0183    1.0000 </r>
       <r>   16.8328    0.0000 </r>
       <r>   21.0204    0.0000 </r>
       <r>   23.0606    0.0000 </r>
       <r>   24.3790    0.0000 </r>
      </set>
      <set comment="kpoint 52">
       <r>   -7.2266    1.0000 </r>
       <r>   -0.1116    1.0000 </r>
       <r>    1.2397    1.0000 </r>
       <r>    5.6544    1.0000 </r>
       <r>   17.3747    0.0000 </r>
       <r>   19.9674    0.0000 </r>
       <r>   22.4618    0.0000 </r>
       <r>   23.7375    0.0000 </r>
      </set>
      <set comment="kpoint 53">
       <r>   -8.2087    1.0000 </r>
       <r>    1.8257    1.0000 </r>
       <r>    3.7973    1.0000 </r>
       <r>    3.7973    1.0000 </r>
       <r>   13.9337    0.0000 </r>
       <r>   17.8356    0.0000 </r>
       <r>   23.3961    0.0000 </r>
       <r>   23.3961    0.0000 </r>
      </set>
      <set comment="kpoint 54">
       <r>   -7.3356    1.0000 </r>
       <r>    0.6499    1.0000 </r>
       <r>    3.1856    1.0000 </r>
       <r>    3.5128    1.0000 </r>
       <r>   14.2593    0.0000 </r>
       <r>   17.2950    0.0000 </r>
       <r>   24.0962    0.0000 </r>
       <r>   24.1357    0.0000 </r>
      </set>
      <set comment="kpoint 55">
       <r>   -6.2759    1.0000 </r>
       <r>   -0.5651    1.0000 </r>
       <r>    2.1859    1.0000 </r>
       <r>    3.4317    1.0000 </r>
       <r>   14.9052    0.0000 </r>
       <r>   17.6421    0.0000 </r>
       <r>   24.3010    0.0000 </r>
       <r>   24.5383    0.0000 </r>
      </set>
      <set comment="kpoint 56">
       <r>   -5.1136    1.0000 </r>
       <r>   -1.7226    1.0000 </r>
       <r>    1.1188    1.0000 </r>
       <r>    3.5580    1.0000 </r>
       <r>   15.3604    0.0000 </r>
       <r>   19.0588    0.0000 </r>
       <r>   24.0325    0.0000 </r>
       <r>   24.7092    0.0000 </r>
      </set>
      <set comment="kpoint 57">
       <r>   -4.3276    1.0000 </r>
       <r>   -2.4107    1.0000 </r>
       <r>    0.2873    1.0000 </r>
       <r>    3.8832    1.0000 </r>
       <r>   15.7496    0.0000 </r>
       <r>   21.0915    0.0000 </r>
       <r>   23.3527    0.0000 </r>
       <r>   24.7346    0.0000 </r>
      </set>
      <set comment="kpoint 58">
       <r>   -4.9577    1.0000 </r>
       <r>   -1.8153    1.0000 </r>
       <r>    0.0354    1.0000 </r>
       <r>    4.3844    1.0000 </r>
       <r>   16.2374    0.0000 </r>
       <r>   22.3171    0.0000 </r>
       <r>   23.0695    0.0000 </r>
       <r>   24.5352    0.0000 </r>
      </set>
      <set comment="kpoint 59">
       <r>   -6.5417    1.0000 </r>
       <r>   -0.3765    1.0000 </r>
       <r>    3.1799    1.0000 </r>
       <r>    3.1799    1.0000 </r>
       <r>   14.0339    0.0000 </r>
       <r>   16.2789    0.0000 </r>
       <r>   25.0550    0.0000 </r>
       <r>   25.0550    0.0000 </r>
      </set>
      <set comment="kpoint 60">
       <r>   -5.5556    1.0000 </r>
       <r>   -1.4677    1.0000 </r>
       <r>    2.6363    1.0000 </r>
       <r>    3.0496    1.0000 </r>
       <r>   14.4674    0.0000 </r>
       <r>   15.9955    0.0000 </r>
       <r>   25.4612    0.0000 </r>
       <r>   25.5453    0.0000 </r>
      </set>
      <set comment="kpoint 61">
       <r>   -4.4340    1.0000 </r>
       <r>   -2.4571    1.0000 </r>
       <r>    1.6350    1.0000 </r>
       <r>    3.1292    1.0000 </r>
       <r>   14.9737    0.0000 </r>
       <r>   16.8699    0.0000 </r>
       <r>   25.2789    0.0000 </r>
       <r>   25.6705    0.0000 </r>
      </set>
      <set comment="kpoint 62">
       <r>   -3.6580    1.0000 </r>
       <r>   -2.9680    1.0000 </r>
       <r>    0.6085    1.0000 </r>
       <r>    3.4134    1.0000 </r>
       <r>   15.3035    0.0000 </r>
       <r>   18.7859    0.0000 </r>
       <r>   24.5462    0.0000 </r>
       <r>   25.4508    0.0000 </r>
      </set>
      <set comment="kpoint 63">
       <r>   -4.6427    1.0000 </r>
       <r>   -2.5635    1.0000 </r>
       <r>    2.8666    1.0000 </r>
       <r>    2.8666    1.0000 </r>
       <r>   14.4197    0.0000 </r>
       <r>   15.1501    0.0000 </r>
       <r>   26.0557    0.0000 </r>
       <r>   26.0557    0.0000 </r>
      </set>
      <set comment="kpoint 64">
       <r>   -3.6013    1.0000 </r>
       <r>   -3.5488    1.0000 </r>
       <r>    2.4586    1.0000 </r>
       <r>    2.8937    1.0000 </r>
       <r>   14.8022    0.0000 </r>
       <r>   15.2934    0.0000 </r>
       <r>   25.9897    0.0000 </r>
       <r>   26.0972    0.0000 </r>
      </set>
      <set comment="kpoint 65">
       <r>  -11.3543    1.0000 </r>
       <r>    6.0593    1.0000 </r>
       <r>    6.6378    1.0000 </r>
       <r>    8.0488    1.0000 </r>
       <r>   15.2467    0.0000 </r>
       <r>   17.3563    0.0000 </r>
       <r>   17.3926    0.0000 </r>
       <r>   23.1508    0.0000 </r>
      </set>
      <set comment="kpoint 66">
       <r>  -10.7563    1.0000 </r>
       <r>    4.2575    1.0000 </r>
       <r>    5.8875    1.0000 </r>
       <r>    7.6213    1.0000 </r>
       <r>   15.8433    0.0000 </r>
       <r>   18.0673    0.0000 </r>
       <r>   18.2763    0.0000 </r>
       <r>   23.1914    0.0000 </r>
      </set>
      <set comment="kpoint 67">
       <r>   -9.9299    1.0000 </r>
       <r>    2.1588    1.0000 </r>
       <r>    5.4099    1.0000 </r>
       <r>    7.0478    1.0000 </r>
       <r>   16.5885    0.0000 </r>
       <r>   18.4590    0.0000 </r>
       <r>   19.0190    0.0000 </r>
       <r>   23.4211    0.0000 </r>
      </set>
      <set comment="kpoint 68">
       <r>   -8.8927    1.0000 </r>
       <r>    0.0700    1.0000 </r>
       <r>    5.1044    1.0000 </r>
       <r>    6.4705    1.0000 </r>
       <r>   17.2184    0.0000 </r>
       <r>   18.5873    0.0000 </r>
       <r>   19.4789    0.0000 </r>
       <r>   23.9893    0.0000 </r>
      </set>
      <set comment="kpoint 69">
       <r>   -7.6937    1.0000 </r>
       <r>   -1.8661    1.0000 </r>
       <r>    4.9584    1.0000 </r>
       <r>    5.9891    1.0000 </r>
       <r>   17.6365    0.0000 </r>
       <r>   18.5319    0.0000 </r>
       <r>   19.7114    0.0000 </r>
       <r>   24.7767    0.0000 </r>
      </set>
      <set comment="kpoint 70">
       <r>   -6.5582    1.0000 </r>
       <r>   -3.3798    1.0000 </r>
       <r>    4.9295    1.0000 </r>
       <r>    5.6942    1.0000 </r>
       <r>   17.8644    0.0000 </r>
       <r>   18.4205    0.0000 </r>
       <r>   19.8065    0.0000 </r>
       <r>   25.3830    0.0000 </r>
      </set>
      <set comment="kpoint 71">
       <r>  -10.5567    1.0000 </r>
       <r>    4.6490    1.0000 </r>
       <r>    5.3873    1.0000 </r>
       <r>    6.7627    1.0000 </r>
       <r>   14.9559    0.0000 </r>
       <r>   19.0601    0.0000 </r>
       <r>   19.3437    0.0000 </r>
       <r>   22.1034    0.0000 </r>
      </set>
      <set comment="kpoint 72">
       <r>   -9.8089    1.0000 </r>
       <r>    2.9252    1.0000 </r>
       <r>    4.7005    1.0000 </r>
       <r>    6.2816    1.0000 </r>
       <r>   15.5895    0.0000 </r>
       <r>   19.5349    0.0000 </r>
       <r>   20.2692    0.0000 </r>
       <r>   21.8077    0.0000 </r>
      </set>
      <set comment="kpoint 73">
       <r>   -8.8450    1.0000 </r>
       <r>    0.9540    1.0000 </r>
       <r>    4.3144    1.0000 </r>
       <r>    5.7001    1.0000 </r>
       <r>   16.3298    0.0000 </r>
       <r>   19.7065    0.0000 </r>
       <r>   20.8623    0.0000 </r>
       <r>   22.1056    0.0000 </r>
      </set>
      <set comment="kpoint 74">
       <r>   -7.6991    1.0000 </r>
       <r>   -0.9676    1.0000 </r>
       <r>    4.0592    1.0000 </r>
       <r>    5.2061    1.0000 </r>
       <r>   16.8934    0.0000 </r>
       <r>   19.6453    0.0000 </r>
       <r>   21.1769    0.0000 </r>
       <r>   23.0172    0.0000 </r>
      </set>
      <set comment="kpoint 75">
       <r>   -6.4993    1.0000 </r>
       <r>   -2.6296    1.0000 </r>
       <r>    3.8291    1.0000 </r>
       <r>    4.9805    1.0000 </r>
       <r>   17.2763    0.0000 </r>
       <r>   19.4431    0.0000 </r>
       <r>   21.3196    0.0000 </r>
       <r>   24.2072    0.0000 </r>
      </set>
      <set comment="kpoint 76">
       <r>   -5.9738    1.0000 </r>
       <r>   -3.2680    1.0000 </r>
       <r>    3.5950    1.0000 </r>
       <r>    5.0919    1.0000 </r>
       <r>   17.6029    0.0000 </r>
       <r>   19.1458    0.0000 </r>
       <r>   21.3185    0.0000 </r>
       <r>   24.9925    0.0000 </r>
      </set>
      <set comment="kpoint 77">
       <r>   -6.8925    1.0000 </r>
       <r>   -2.1047    1.0000 </r>
       <r>    3.4474    1.0000 </r>
       <r>    5.4602    1.0000 </r>
       <r>   17.9270    0.0000 </r>
       <r>   18.7559    0.0000 </r>
       <r>   21.1951    0.0000 </r>
       <r>   24.6158    0.0000 </r>
      </set>
      <set comment="kpoint 78">
       <r>   -8.1025    1.0000 </r>
       <r>   -0.3110    1.0000 </r>
       <r>    3.4612    1.0000 </r>
       <r>    5.9963    1.0000 </r>
       <r>   17.9924    0.0000 </r>
       <r>   18.4379    0.0000 </r>
       <r>   20.9179    0.0000 </r>
       <r>   23.6584    0.0000 </r>
      </set>
      <set comment="kpoint 79">
       <r>   -9.1924    1.0000 </r>
       <r>    1.6354    1.0000 </r>
       <r>    3.6919    1.0000 </r>
       <r>    6.6172    1.0000 </r>
       <r>   17.2992    0.0000 </r>
       <r>   18.5507    0.0000 </r>
       <r>   20.3413    0.0000 </r>
       <r>   22.9852    0.0000 </r>
      </set>
      <set comment="kpoint 80">
       <r>  -10.0852    1.0000 </r>
       <r>    3.3597    1.0000 </r>
       <r>    4.3640    1.0000 </r>
       <r>    7.2103    1.0000 </r>
       <r>   16.4619    0.0000 </r>
       <r>   18.4746    0.0000 </r>
       <r>   19.3795    0.0000 </r>
       <r>   22.9186    0.0000 </r>
      </set>
      <set comment="kpoint 81">
       <r>   -9.4534    1.0000 </r>
       <r>    3.1984    1.0000 </r>
       <r>    4.2761    1.0000 </r>
       <r>    5.2347    1.0000 </r>
       <r>   14.7010    0.0000 </r>
       <r>   20.2170    0.0000 </r>
       <r>   20.9098    0.0000 </r>
       <r>   21.4331    0.0000 </r>
      </set>
      <set comment="kpoint 82">
       <r>   -8.5669    1.0000 </r>
       <r>    1.6557    1.0000 </r>
       <r>    3.6144    1.0000 </r>
       <r>    4.7327    1.0000 </r>
       <r>   15.3863    0.0000 </r>
       <r>   19.9788    0.0000 </r>
       <r>   21.2028    0.0000 </r>
       <r>   22.3252    0.0000 </r>
      </set>
      <set comment="kpoint 83">
       <r>   -7.4869    1.0000 </r>
       <r>   -0.0850    1.0000 </r>
       <r>    3.1261    1.0000 </r>
       <r>    4.2978    1.0000 </r>
       <r>   16.0884    0.0000 </r>
       <r>   20.4904    0.0000 </r>
       <r>   21.2475    0.0000 </r>
       <r>   22.8783    0.0000 </r>
      </set>
      <set comment="kpoint 84">
       <r>   -6.2925    1.0000 </r>
       <r>   -1.7362    1.0000 </r>
       <r>    2.6180    1.0000 </r>
       <r>    4.1727    1.0000 </r>
       <r>   16.5666    0.0000 </r>
       <r>   20.9671    0.0000 </r>
       <r>   21.8188    0.0000 </r>
       <r>   23.1839    0.0000 </r>
      </set>
      <set comment="kpoint 85">
       <r>   -5.4059    1.0000 </r>
       <r>   -2.7987    1.0000 </r>
       <r>    2.1554    1.0000 </r>
       <r>    4.3530    1.0000 </r>
       <r>   16.9523    0.0000 </r>
       <r>   20.6518    0.0000 </r>
       <r>   22.7048    0.0000 </r>
       <r>   23.8449    0.0000 </r>
      </set>
      <set comment="kpoint 86">
       <r>   -5.9446    1.0000 </r>
       <r>   -2.1309    1.0000 </r>
       <r>    1.8422    1.0000 </r>
       <r>    4.7616    1.0000 </r>
       <r>   17.3768    0.0000 </r>
       <r>   20.1273    0.0000 </r>
       <r>   22.6854    0.0000 </r>
       <r>   24.4205    0.0000 </r>
      </set>
      <set comment="kpoint 87">
       <r>   -7.1197    1.0000 </r>
       <r>   -0.5575    1.0000 </r>
       <r>    1.7635    1.0000 </r>
       <r>    5.3334    1.0000 </r>
       <r>   17.8535    0.0000 </r>
       <r>   19.3479    0.0000 </r>
       <r>   22.4403    0.0000 </r>
       <r>   23.5660    0.0000 </r>
      </set>
      <set comment="kpoint 88">
       <r>   -8.2438    1.0000 </r>
       <r>    0.9390    1.0000 </r>
       <r>    2.2033    1.0000 </r>
       <r>    5.9911    1.0000 </r>
       <r>   18.2978    0.0000 </r>
       <r>   18.3312    0.0000 </r>
       <r>   21.6864    0.0000 </r>
       <r>   22.8733    0.0000 </r>
      </set>
      <set comment="kpoint 89">
       <r>   -8.0613    1.0000 </r>
       <r>    1.5376    1.0000 </r>
       <r>    3.4019    1.0000 </r>
       <r>    3.9020    1.0000 </r>
       <r>   14.5825    0.0000 </r>
       <r>   18.3527    0.0000 </r>
       <r>   22.7567    0.0000 </r>
       <r>   23.4171    0.0000 </r>
      </set>
      <set comment="kpoint 90">
       <r>   -7.0546    1.0000 </r>
       <r>    0.2618    1.0000 </r>
       <r>    2.6066    1.0000 </r>
       <r>    3.5270    1.0000 </r>
       <r>   15.3203    0.0000 </r>
       <r>   18.4079    0.0000 </r>
       <r>   22.8960    0.0000 </r>
       <r>   24.1404    0.0000 </r>
      </set>
      <set comment="kpoint 91">
       <r>   -5.9010    1.0000 </r>
       <r>   -1.0937    1.0000 </r>
       <r>    1.7226    1.0000 </r>
       <r>    3.4559    1.0000 </r>
       <r>   15.9244    0.0000 </r>
       <r>   19.4598    0.0000 </r>
       <r>   22.7748    0.0000 </r>
       <r>   24.4127    0.0000 </r>
      </set>
      <set comment="kpoint 92">
       <r>   -4.8391    1.0000 </r>
       <r>   -2.2313    1.0000 </r>
       <r>    0.9642    1.0000 </r>
       <r>    3.6549    1.0000 </r>
       <r>   16.3319    0.0000 </r>
       <r>   21.2466    0.0000 </r>
       <r>   22.4249    0.0000 </r>
       <r>   24.3179    0.0000 </r>
      </set>
      <set comment="kpoint 93">
       <r>   -4.9244    1.0000 </r>
       <r>   -2.0781    1.0000 </r>
       <r>    0.4797    1.0000 </r>
       <r>    4.0701    1.0000 </r>
       <r>   16.7660    0.0000 </r>
       <r>   21.7294    0.0000 </r>
       <r>   23.1088    0.0000 </r>
       <r>   24.0247    0.0000 </r>
      </set>
      <set comment="kpoint 94">
       <r>   -5.9963    1.0000 </r>
       <r>   -1.0192    1.0000 </r>
       <r>    0.5576    1.0000 </r>
       <r>    4.6529    1.0000 </r>
       <r>   17.2915    0.0000 </r>
       <r>   20.6693    0.0000 </r>
       <r>   23.5634    0.0000 </r>
       <r>   23.7365    0.0000 </r>
      </set>
      <set comment="kpoint 95">
       <r>   -6.4065    1.0000 </r>
       <r>   -0.4189    1.0000 </r>
       <r>    2.8130    1.0000 </r>
       <r>    3.0341    1.0000 </r>
       <r>   14.6769    0.0000 </r>
       <r>   16.8450    0.0000 </r>
       <r>   24.4239    0.0000 </r>
       <r>   25.0332    0.0000 </r>
      </set>
      <set comment="kpoint 96">
       <r>   -5.3124    1.0000 </r>
       <r>   -1.4707    1.0000 </r>
       <r>    1.8803    1.0000 </r>
       <r>    2.9121    1.0000 </r>
       <r>   15.4192    0.0000 </r>
       <r>   17.2844    0.0000 </r>
       <r>   24.4112    0.0000 </r>
       <r>   25.3469    0.0000 </r>
      </set>
      <set comment="kpoint 97">
       <r>   -4.1979    1.0000 </r>
       <r>   -2.3890    1.0000 </r>
       <r>    0.7970    1.0000 </r>
       <r>    3.0957    1.0000 </r>
       <r>   15.8487    0.0000 </r>
       <r>   18.9028    0.0000 </r>
       <r>   24.0634    0.0000 </r>
       <r>   25.1032    0.0000 </r>
      </set>
      <set comment="kpoint 98">
       <r>   -4.0153    1.0000 </r>
       <r>   -2.4462    1.0000 </r>
       <r>    0.0937    1.0000 </r>
       <r>    3.4944    1.0000 </r>
       <r>   16.2470    0.0000 </r>
       <r>   21.0726    0.0000 </r>
       <r>   23.1791    0.0000 </r>
       <r>   24.6025    0.0000 </r>
      </set>
      <set comment="kpoint 99">
       <r>   -4.5305    1.0000 </r>
       <r>   -2.4991    1.0000 </r>
       <r>    2.5383    1.0000 </r>
       <r>    2.6011    1.0000 </r>
       <r>   15.0479    0.0000 </r>
       <r>   15.7532    0.0000 </r>
       <r>   25.6080    0.0000 </r>
       <r>   25.8717    0.0000 </r>
      </set>
      <set comment="kpoint 100">
       <r>   -3.5009    1.0000 </r>
       <r>   -3.3115    1.0000 </r>
       <r>    1.6397    1.0000 </r>
       <r>    2.7260    1.0000 </r>
       <r>   15.5391    0.0000 </r>
       <r>   16.8189    0.0000 </r>
       <r>   25.2547    0.0000 </r>
       <r>   25.5700    0.0000 </r>
      </set>
      <set comment="kpoint 101">
       <r>   -8.9947    1.0000 </r>
       <r>    2.0787    1.0000 </r>
       <r>    3.3010    1.0000 </r>
       <r>    5.7825    1.0000 </r>
       <r>   16.3195    0.0000 </r>
       <r>   19.6689    0.0000 </r>
       <r>   21.4165    0.0000 </r>
       <r>   21.4815    0.0000 </r>
      </set>
      <set comment="kpoint 102">
       <r>   -7.9758    1.0000 </r>
       <r>    0.5235    1.0000 </r>
       <r>    2.7057    1.0000 </r>
       <r>    5.1607    1.0000 </r>
       <r>   17.2158    0.0000 </r>
       <r>   19.4955    0.0000 </r>
       <r>   21.5857    0.0000 </r>
       <r>   22.5012    0.0000 </r>
      </set>
      <set comment="kpoint 103">
       <r>   -6.8034    1.0000 </r>
       <r>   -1.2128    1.0000 </r>
       <r>    2.5340    1.0000 </r>
       <r>    4.6004    1.0000 </r>
       <r>   17.8593    0.0000 </r>
       <r>   19.2629    0.0000 </r>
       <r>   22.1948    0.0000 </r>
       <r>   23.3501    0.0000 </r>
      </set>
      <set comment="kpoint 104">
       <r>   -5.7012    1.0000 </r>
       <r>   -2.6270    1.0000 </r>
       <r>    2.5058    1.0000 </r>
       <r>    4.2589    1.0000 </r>
       <r>   18.1318    0.0000 </r>
       <r>   19.1261    0.0000 </r>
       <r>   22.6778    0.0000 </r>
       <r>   24.1662    0.0000 </r>
      </set>
      <set comment="kpoint 105">
       <r>   -7.6250    1.0000 </r>
       <r>    0.8109    1.0000 </r>
       <r>    2.4768    1.0000 </r>
       <r>    4.1671    1.0000 </r>
       <r>   16.2475    0.0000 </r>
       <r>   19.6756    0.0000 </r>
       <r>   21.2386    0.0000 </r>
       <r>   23.4813    0.0000 </r>
      </set>
      <set comment="kpoint 106">
       <r>   -6.5111    1.0000 </r>
       <r>   -0.4921    1.0000 </r>
       <r>    1.8763    1.0000 </r>
       <r>    3.5990    1.0000 </r>
       <r>   17.1676    0.0000 </r>
       <r>   20.0226    0.0000 </r>
       <r>   21.1898    0.0000 </r>
       <r>   24.1638    0.0000 </r>
      </set>
      <set comment="kpoint 107">
       <r>   -5.3539    1.0000 </r>
       <r>   -1.8676    1.0000 </r>
       <r>    1.5228    1.0000 </r>
       <r>    3.3162    1.0000 </r>
       <r>   17.7150    0.0000 </r>
       <r>   20.4519    0.0000 </r>
       <r>   21.8166    0.0000 </r>
       <r>   24.2090    0.0000 </r>
      </set>
      <set comment="kpoint 108">
       <r>   -4.8657    1.0000 </r>
       <r>   -2.4005    1.0000 </r>
       <r>    1.2320    1.0000 </r>
       <r>    3.4290    1.0000 </r>
       <r>   18.0970    0.0000 </r>
       <r>   20.1771    0.0000 </r>
       <r>   23.1988    0.0000 </r>
       <r>   23.6116    0.0000 </r>
      </set>
      <set comment="kpoint 109">
       <r>   -5.7568    1.0000 </r>
       <r>   -1.3621    1.0000 </r>
       <r>    1.0971    1.0000 </r>
       <r>    3.8586    1.0000 </r>
       <r>   18.5191    0.0000 </r>
       <r>   19.5409    0.0000 </r>
       <r>   22.4887    0.0000 </r>
       <r>   24.0679    0.0000 </r>
      </set>
      <set comment="kpoint 110">
       <r>   -6.9208    1.0000 </r>
       <r>   -0.1059    1.0000 </r>
       <r>    1.4371    1.0000 </r>
       <r>    4.4825    1.0000 </r>
       <r>   18.4362    0.0000 </r>
       <r>   19.0367    0.0000 </r>
       <r>   21.8083    0.0000 </r>
       <r>   23.6025    0.0000 </r>
      </set>
      <set comment="kpoint 111">
       <r>   -6.0117    1.0000 </r>
       <r>   -0.6300    1.0000 </r>
       <r>    1.9524    1.0000 </r>
       <r>    2.8150    1.0000 </r>
       <r>   16.3518    0.0000 </r>
       <r>   18.3418    0.0000 </r>
       <r>   22.7900    0.0000 </r>
       <r>   24.9199    0.0000 </r>
      </set>
      <set comment="kpoint 112">
       <r>   -4.8673    1.0000 </r>
       <r>   -1.6322    1.0000 </r>
       <r>    1.1904    1.0000 </r>
       <r>    2.5130    1.0000 </r>
       <r>   17.2078    0.0000 </r>
       <r>   19.2901    0.0000 </r>
       <r>   22.5383    0.0000 </r>
       <r>   24.7988    0.0000 </r>
      </set>
      <set comment="kpoint 113">
       <r>   -4.0592    1.0000 </r>
       <r>   -2.3247    1.0000 </r>
       <r>    0.4876    1.0000 </r>
       <r>    2.7010    1.0000 </r>
       <r>   17.6303    0.0000 </r>
       <r>   21.1198    0.0000 </r>
       <r>   22.1668    0.0000 </r>
       <r>   23.8509    0.0000 </r>
      </set>
      <set comment="kpoint 114">
       <r>   -4.6647    1.0000 </r>
       <r>   -1.7898    1.0000 </r>
       <r>    0.2917    1.0000 </r>
       <r>    3.1846    1.0000 </r>
       <r>   18.0586    0.0000 </r>
       <r>   21.0161    0.0000 </r>
       <r>   22.9057    0.0000 </r>
       <r>   23.2453    0.0000 </r>
      </set>
      <set comment="kpoint 115">
       <r>   -4.2176    1.0000 </r>
       <r>   -2.3584    1.0000 </r>
       <r>    1.7792    1.0000 </r>
       <r>    2.0286    1.0000 </r>
       <r>   16.7011    0.0000 </r>
       <r>   17.3499    0.0000 </r>
       <r>   24.2559    0.0000 </r>
       <r>   25.1796    0.0000 </r>
      </set>
      <set comment="kpoint 116">
       <r>   -3.3738    1.0000 </r>
       <r>   -2.9279    1.0000 </r>
       <r>    0.8868    1.0000 </r>
       <r>    2.1795    1.0000 </r>
       <r>   17.2554    0.0000 </r>
       <r>   18.9659    0.0000 </r>
       <r>   23.7387    0.0000 </r>
       <r>   24.2318    0.0000 </r>
      </set>
      <set comment="kpoint 117">
       <r>   -5.3981    1.0000 </r>
       <r>   -1.1200    1.0000 </r>
       <r>    1.0062    1.0000 </r>
       <r>    2.8633    1.0000 </r>
       <r>   18.6047    0.0000 </r>
       <r>   19.8023    0.0000 </r>
       <r>   21.2218    0.0000 </r>
       <r>   24.4990    0.0000 </r>
      </set>
      <set comment="kpoint 118">
       <r>   -4.3472    1.0000 </r>
       <r>   -2.0223    1.0000 </r>
       <r>    0.7169    1.0000 </r>
       <r>    2.3881    1.0000 </r>
       <r>   19.2768    0.0000 </r>
       <r>   20.0962    0.0000 </r>
       <r>   21.9234    0.0000 </r>
       <r>   23.4673    0.0000 </r>
      </set>
      <set comment="kpoint 119">
       <r>   -3.7916    1.0000 </r>
       <r>   -2.3086    1.0000 </r>
       <r>    1.0118    1.0000 </r>
       <r>    1.6082    1.0000 </r>
       <r>   18.9381    0.0000 </r>
       <r>   19.4513    0.0000 </r>
       <r>   22.2597    0.0000 </r>
       <r>   23.7078    0.0000 </r>
      </set>
      <set comment="kpoint 120">
       <r>   -3.4440    1.0000 </r>
       <r>   -2.5241    1.0000 </r>
       <r>    0.6290    1.0000 </r>
       <r>    1.6827    1.0000 </r>
       <r>   19.4342    0.0000 </r>
       <r>   20.9305    0.0000 </r>
       <r>   21.9691    0.0000 </r>
       <r>   22.2473    0.0000 </r>
      </set>
     </set>
    </set>
   </array>
  </eigenvalues>
  <separator name="orbital magnetization" >
   <v name="MAGDIPOLOUT">      0.00000000      0.00000000      0.00000000</v>
  </separator>
  <dos>
   <i name="efermi">      9.21767930 </i>
   <total>
    <array>
     <dimension dim="1">gridpoints</dimension>
     <dimension dim="2">spin</dimension>
     <field>energy</field>
     <field>total</field>
     <field>integrated</field>
     <set>
      <set comment="spin 1">
       <r>   -14.0722     0.0000     0.0000 </r>
       <r>   -13.9319     0.0000     0.0000 </r>
       <r>   -13.7917     0.0000     0.0000 </r>
       <r>   -13.6514     0.0000     0.0000 </r>
       <r>   -13.5111     0.0000     0.0000 </r>
       <r>   -13.3709     0.0000     0.0000 </r>
       <r>   -13.2306     0.0000     0.0000 </r>
       <r>   -13.0903     0.0000     0.0000 </r>
       <r>   -12.9500     0.0000     0.0000 </r>
       <r>   -12.8098     0.0000     0.0000 </r>
       <r>   -12.6695     0.0000     0.0000 </r>
       <r>   -12.5292     0.0000     0.0000 </r>
       <r>   -12.3889     0.0000     0.0000 </r>
       <r>   -12.2487     0.0000     0.0000 </r>
       <r>   -12.1084     0.0047     0.0007 </r>
       <r>   -11.9681     0.0528     0.0081 </r>
       <r>   -11.8278     0.0362     0.0131 </r>
       <r>   -11.6876     0.1126     0.0289 </r>
       <r>   -11.5473     0.0474     0.0356 </r>
       <r>   -11.4070     0.0646     0.0447 </r>
       <r>   -11.2667     0.1605     0.0672 </r>
       <r>   -11.1265     0.1067     0.0821 </r>
       <r>   -10.9862     0.1276     0.1000 </r>
       <r>   -10.8459     0.0426     0.1060 </r>
       <r>   -10.7056     0.2756     0.1447 </r>
       <r>   -10.5654     0.1037     0.1592 </r>
       <r>   -10.4251     0.1522     0.1806 </r>
       <r>   -10.2848     0.1155     0.1968 </r>
       <r>   -10.1445     0.0892     0.2093 </r>
       <r>   -10.0043     0.2467     0.2439 </r>
       <r>    -9.8640     0.2147     0.2740 </r>
       <r>    -9.7237     0.2877     0.3144 </r>
       <r>    -9.5834     0.0222     0.3175 </r>
       <r>    -9.4432     0.2402     0.3512 </r>
       <r>    -9.3029     0.1459     0.3716 </r>
       <r>    -9.1626     0.3123     0.4154 </r>
       <r>    -9.0223     0.1232     0.4327 </r>
       <r>    -8.8821     0.2689     0.4704 </r>
       <r>    -8.7418     0.3368     0.5177 </r>
       <r>    -8.6015     0.1151     0.5338 </r>
       <r>    -8.4613     0.1742     0.5583 </r>
       <r>    -8.3210     0.1579     0.5804 </r>
       <r>    -8.1807     0.3627     0.6313 </r>
       <r>    -8.0404     0.3022     0.6737 </r>
       <r>    -7.9002     0.4115     0.7314 </r>
       <r>    -7.7599     0.0518     0.7387 </r>
       <r>    -7.6196     0.4414     0.8006 </r>
       <r>    -7.4793     0.2225     0.8318 </r>
       <r>    -7.3391     0.1791     0.8569 </r>
       <r>    -7.1988     0.1291     0.8750 </r>
       <r>    -7.0585     0.6183     0.9618 </r>
       <r>    -6.9182     0.2709     0.9998 </r>
       <r>    -6.7780     0.5233     1.0732 </r>
       <r>    -6.6377     0.1214     1.0902 </r>
       <r>    -6.4974     0.5439     1.1665 </r>
       <r>    -6.3571     0.2895     1.2071 </r>
       <r>    -6.2169     0.3842     1.2610 </r>
       <r>    -6.0766     0.0559     1.2688 </r>
       <r>    -5.9363     0.7736     1.3774 </r>
       <r>    -5.7960     0.3347     1.4243 </r>
       <r>    -5.6558     0.3721     1.4765 </r>
       <r>    -5.5155     0.1958     1.5040 </r>
       <r>    -5.3752     0.3149     1.5481 </r>
       <r>    -5.2349     0.4055     1.6050 </r>
       <r>    -5.0947     0.1683     1.6286 </r>
       <r>    -4.9544     0.1069     1.6436 </r>
       <r>    -4.8141     0.7148     1.7439 </r>
       <r>    -4.6738     0.1221     1.7610 </r>
       <r>    -4.5336     0.1289     1.7791 </r>
       <r>    -4.3933     0.1654     1.8023 </r>
       <r>    -4.2530     0.3197     1.8471 </r>
       <r>    -4.1128     0.2903     1.8879 </r>
       <r>    -3.9725     0.2796     1.9271 </r>
       <r>    -3.8322     0.0563     1.9350 </r>
       <r>    -3.6919     0.1732     1.9593 </r>
       <r>    -3.5517     0.1843     1.9851 </r>
       <r>    -3.4114     0.3258     2.0308 </r>
       <r>    -3.2711     0.4526     2.0943 </r>
       <r>    -3.1308     0.1843     2.1202 </r>
       <r>    -2.9906     0.0562     2.1281 </r>
       <r>    -2.8503     0.3450     2.1765 </r>
       <r>    -2.7100     0.3001     2.2186 </r>
       <r>    -2.5697     0.5534     2.2962 </r>
       <r>    -2.4295     0.5299     2.3705 </r>
       <r>    -2.2892     0.9108     2.4983 </r>
       <r>    -2.1489     0.3519     2.5476 </r>
       <r>    -2.0086     0.7723     2.6560 </r>
       <r>    -1.8684     0.2812     2.6954 </r>
       <r>    -1.7281     0.5174     2.7680 </r>
       <r>    -1.5878     0.3255     2.8136 </r>
       <r>    -1.4475     0.3723     2.8659 </r>
       <r>    -1.3073     0.5466     2.9425 </r>
       <r>    -1.1670     0.2534     2.9781 </r>
       <r>    -1.0267     0.4150     3.0363 </r>
       <r>    -0.8864     0.2566     3.0723 </r>
       <r>    -0.7462     0.0542     3.0799 </r>
       <r>    -0.6059     0.2215     3.1110 </r>
       <r>    -0.4656     0.5997     3.1951 </r>
       <r>    -0.3253     0.2331     3.2278 </r>
       <r>    -0.1851     0.1419     3.2477 </r>
       <r>    -0.0448     0.3514     3.2970 </r>
       <r>     0.0955     0.2871     3.3373 </r>
       <r>     0.2357     0.1587     3.3595 </r>
       <r>     0.3760     0.4035     3.4161 </r>
       <r>     0.5163     0.5725     3.4964 </r>
       <r>     0.6566     0.5546     3.5742 </r>
       <r>     0.7968     0.4376     3.6356 </r>
       <r>     0.9371     0.5280     3.7097 </r>
       <r>     1.0774     0.8025     3.8222 </r>
       <r>     1.2177     0.4943     3.8916 </r>
       <r>     1.3579     0.3706     3.9436 </r>
       <r>     1.4982     0.2551     3.9793 </r>
       <r>     1.6385     0.6563     4.0714 </r>
       <r>     1.7788     0.8490     4.1905 </r>
       <r>     1.9190     0.7984     4.3025 </r>
       <r>     2.0593     0.2874     4.3428 </r>
       <r>     2.1996     0.6818     4.4384 </r>
       <r>     2.3399     0.2772     4.4773 </r>
       <r>     2.4801     0.3865     4.5315 </r>
       <r>     2.6204     1.2889     4.7123 </r>
       <r>     2.7607     0.9239     4.8419 </r>
       <r>     2.9010     0.7208     4.9430 </r>
       <r>     3.0412     0.4848     5.0111 </r>
       <r>     3.1815     0.8047     5.1239 </r>
       <r>     3.3218     0.5018     5.1943 </r>
       <r>     3.4621     1.0796     5.3458 </r>
       <r>     3.6023     1.2734     5.5244 </r>
       <r>     3.7426     0.8087     5.6378 </r>
       <r>     3.8829     0.5051     5.7087 </r>
       <r>     4.0232     0.3940     5.7639 </r>
       <r>     4.1634     0.7107     5.8636 </r>
       <r>     4.3037     1.1741     6.0283 </r>
       <r>     4.4440     0.9181     6.1571 </r>
       <r>     4.5842     0.3821     6.2107 </r>
       <r>     4.7245     0.8941     6.3361 </r>
       <r>     4.8648     0.5975     6.4199 </r>
       <r>     5.0051     0.8518     6.5394 </r>
       <r>     5.1453     0.7026     6.6380 </r>
       <r>     5.2856     0.6292     6.7262 </r>
       <r>     5.4259     0.6963     6.8239 </r>
[...]
       </set>
       <set comment="band 5">
        <r>  0.0413  0.0103  0.2157  0.0183  0.0000  0.0000  0.0000  0.0000  0.0000 </r>
        <r>  0.0413  0.0103  0.2157  0.0183  0.0000  0.0000  0.0000  0.0000  0.0000 </r>
       </set>
       <set comment="band 6">
        <r>  0.0412  0.0718  0.0510  0.0845  0.0000  0.0000  0.0000  0.0000  0.0000 </r>
        <r>  0.0412  0.0718  0.0510  0.0845  0.0000  0.0000  0.0000  0.0000  0.0000 </r>
       </set>
       <set comment="band 7">
        <r>  0.1433  0.0837  0.0020  0.0623  0.0000  0.0000  0.0000  0.0000  0.0000 </r>
        <r>  0.1433  0.0837  0.0020  0.0623  0.0000  0.0000  0.0000  0.0000  0.0000 </r>
       </set>
       <set comment="band 8">
        <r>  0.0305  0.1132  0.0766  0.1581  0.0000  0.0000  0.0000  0.0000  0.0000 </r>
        <r>  0.0305  0.1132  0.0766  0.1581  0.0000  0.0000  0.0000  0.0000  0.0000 </r>
       </set>
      </set>
      <set comment="kpoint 111">
       <set comment="band 1">
        <r>  0.2406  0.0136  0.0036  0.0604  0.0000  0.0000  0.0000  0.0000  0.0000 </r>
        <r>  0.2406  0.0136  0.0036  0.0604  0.0000  0.0000  0.0000  0.0000  0.0000 </r>
       </set>
       <set comment="band 2">
        <r>  0.1950  0.0343  0.0221  0.0996  0.0000  0.0000  0.0000  0.0000  0.0000 </r>
        <r>  0.1950  0.0343  0.0221  0.0996  0.0000  0.0000  0.0000  0.0000  0.0000 </r>
       </set>
       <set comment="band 3">
        <r>  0.0170  0.0695  0.1397  0.0865  0.0000  0.0000  0.0000  0.0000  0.0000 </r>
        <r>  0.0170  0.0695  0.1397  0.0865  0.0000  0.0000  0.0000  0.0000  0.0000 </r>
       </set>
       <set comment="band 4">
        <r>  0.0012  0.1679  0.1298  0.0171  0.0000  0.0000  0.0000  0.0000  0.0000 </r>
        <r>  0.0012  0.1679  0.1298  0.0171  0.0000  0.0000  0.0000  0.0000  0.0000 </r>
       </set>
       <set comment="band 5">
        <r>  0.0792  0.0971  0.0326  0.0290  0.0000  0.0000  0.0000  0.0000  0.0000 </r>
        <r>  0.0792  0.0971  0.0326  0.0290  0.0000  0.0000  0.0000  0.0000  0.0000 </r>
       </set>
       <set comment="band 6">
        <r>  0.0863  0.0018  0.0299  0.0749  0.0000  0.0000  0.0000  0.0000  0.0000 </r>
        <r>  0.0863  0.0018  0.0299  0.0749  0.0000  0.0000  0.0000  0.0000  0.0000 </r>
       </set>
       <set comment="band 7">
        <r>  0.0556  0.1292  0.1373  0.0259  0.0000  0.0000  0.0000  0.0000  0.0000 </r>
        <r>  0.0556  0.1292  0.1373  0.0259  0.0000  0.0000  0.0000  0.0000  0.0000 </r>
       </set>
       <set comment="band 8">
        <r>  0.0137  0.1227  0.1939  0.0717  0.0000  0.0000  0.0000  0.0000  0.0000 </r>
        <r>  0.0137  0.1227  0.1939  0.0717  0.0000  0.0000  0.0000  0.0000  0.0000 </r>
       </set>
      </set>
      <set comment="kpoint 112">
       <set comment="band 1">
        <r>  0.2406  0.0169  0.0042  0.0662  0.0000  0.0000  0.0000  0.0000  0.0000 </r>
        <r>  0.2406  0.0169  0.0042  0.0662  0.0000  0.0000  0.0000  0.0000  0.0000 </r>
       </set>
       <set comment="band 2">
        <r>  0.2046  0.0288  0.0083  0.1037  0.0000  0.0000  0.0000  0.0000  0.0000 </r>
        <r>  0.2046  0.0288  0.0083  0.1037  0.0000  0.0000  0.0000  0.0000  0.0000 </r>
       </set>
       <set comment="band 3">
        <r>  0.0176  0.1734  0.0318  0.0767  0.0000  0.0000  0.0000  0.0000  0.0000 </r>
        <r>  0.0176  0.1734  0.0318  0.0767  0.0000  0.0000  0.0000  0.0000  0.0000 </r>
       </set>
       <set comment="band 4">
        <r>  0.0026  0.0507  0.2522  0.0078  0.0000  0.0000  0.0000  0.0000  0.0000 </r>
        <r>  0.0026  0.0507  0.2522  0.0078  0.0000  0.0000  0.0000  0.0000  0.0000 </r>
       </set>
       <set comment="band 5">
        <r>  0.0764  0.0783  0.0502  0.0228  0.0000  0.0000  0.0000  0.0000  0.0000 </r>
        <r>  0.0764  0.0783  0.0502  0.0228  0.0000  0.0000  0.0000  0.0000  0.0000 </r>
       </set>
       <set comment="band 6">
        <r>  0.0650  0.0481  0.0176  0.0934  0.0000  0.0000  0.0000  0.0000  0.0000 </r>
        <r>  0.0650  0.0481  0.0176  0.0934  0.0000  0.0000  0.0000  0.0000  0.0000 </r>
       </set>
       <set comment="band 7">
        <r>  0.0691  0.1050  0.1522  0.0150  0.0000  0.0000  0.0000  0.0000  0.0000 </r>
        <r>  0.0691  0.1050  0.1522  0.0150  0.0000  0.0000  0.0000  0.0000  0.0000 </r>
       </set>
       <set comment="band 8">
        <r>  0.0319  0.1165  0.1583  0.0873  0.0000  0.0000  0.0000  0.0000  0.0000 </r>
        <r>  0.0319  0.1165  0.1583  0.0873  0.0000  0.0000  0.0000  0.0000  0.0000 </r>
       </set>
      </set>
      <set comment="kpoint 113">
       <set comment="band 1">
        <r>  0.2570  0.0341  0.0065  0.0439  0.0000  0.0000  0.0000  0.0000  0.0000 </r>
        <r>  0.2570  0.0341  0.0065  0.0439  0.0000  0.0000  0.0000  0.0000  0.0000 </r>
       </set>
       <set comment="band 2">
        <r>  0.1931  0.0214  0.0028  0.1168  0.0000  0.0000  0.0000  0.0000  0.0000 </r>
        <r>  0.1931  0.0214  0.0028  0.1168  0.0000  0.0000  0.0000  0.0000  0.0000 </r>
       </set>
       <set comment="band 3">
        <r>  0.0147  0.1871  0.0060  0.0804  0.0000  0.0000  0.0000  0.0000  0.0000 </r>
        <r>  0.0147  0.1871  0.0060  0.0804  0.0000  0.0000  0.0000  0.0000  0.0000 </r>
       </set>
       <set comment="band 4">
        <r>  0.0059  0.0165  0.2839  0.0106  0.0000  0.0000  0.0000  0.0000  0.0000 </r>
        <r>  0.0059  0.0165  0.2839  0.0106  0.0000  0.0000  0.0000  0.0000  0.0000 </r>
       </set>
       <set comment="band 5">
        <r>  0.0707  0.0551  0.0540  0.0412  0.0000  0.0000  0.0000  0.0000  0.0000 </r>
        <r>  0.0707  0.0551  0.0540  0.0412  0.0000  0.0000  0.0000  0.0000  0.0000 </r>
       </set>
       <set comment="band 6">
        <r>  0.0295  0.0838  0.0587  0.0802  0.0000  0.0000  0.0000  0.0000  0.0000 </r>
        <r>  0.0295  0.0838  0.0587  0.0802  0.0000  0.0000  0.0000  0.0000  0.0000 </r>
       </set>
       <set comment="band 7">
        <r>  0.0829  0.0788  0.1601  0.0263  0.0000  0.0000  0.0000  0.0000  0.0000 </r>
        <r>  0.0829  0.0788  0.1601  0.0263  0.0000  0.0000  0.0000  0.0000  0.0000 </r>
       </set>
       <set comment="band 8">
        <r>  0.0677  0.1171  0.0671  0.1068  0.0000  0.0000  0.0000  0.0000  0.0000 </r>
        <r>  0.0677  0.1171  0.0671  0.1068  0.0000  0.0000  0.0000  0.0000  0.0000 </r>
       </set>
      </set>
      <set comment="kpoint 114">
       <set comment="band 1">
        <r>  0.2542  0.0433  0.0063  0.0313  0.0000  0.0000  0.0000  0.0000  0.0000 </r>
        <r>  0.2542  0.0433  0.0063  0.0313  0.0000  0.0000  0.0000  0.0000  0.0000 </r>
       </set>
       <set comment="band 2">
        <r>  0.1937  0.0638  0.0022  0.0798  0.0000  0.0000  0.0000  0.0000  0.0000 </r>
        <r>  0.1937  0.0638  0.0022  0.0798  0.0000  0.0000  0.0000  0.0000  0.0000 </r>
       </set>
       <set comment="band 3">
        <r>  0.0136  0.1377  0.0027  0.1308  0.0000  0.0000  0.0000  0.0000  0.0000 </r>
        <r>  0.0136  0.1377  0.0027  0.1308  0.0000  0.0000  0.0000  0.0000  0.0000 </r>
       </set>
       <set comment="band 4">
        <r>  0.0075  0.0075  0.2921  0.0151  0.0000  0.0000  0.0000  0.0000  0.0000 </r>
        <r>  0.0075  0.0075  0.2921  0.0151  0.0000  0.0000  0.0000  0.0000  0.0000 </r>
       </set>
       <set comment="band 5">
        <r>  0.0613  0.0486  0.0538  0.0616  0.0000  0.0000  0.0000  0.0000  0.0000 </r>
        <r>  0.0613  0.0486  0.0538  0.0616  0.0000  0.0000  0.0000  0.0000  0.0000 </r>
       </set>
       <set comment="band 6">
        <r>  0.0260  0.0057  0.2578  0.0102  0.0000  0.0000  0.0000  0.0000  0.0000 </r>
        <r>  0.0260  0.0057  0.2578  0.0102  0.0000  0.0000  0.0000  0.0000  0.0000 </r>
       </set>
       <set comment="band 7">
        <r>  0.1087  0.1321  0.0004  0.0869  0.0000  0.0000  0.0000  0.0000  0.0000 </r>
        <r>  0.1087  0.1321  0.0004  0.0869  0.0000  0.0000  0.0000  0.0000  0.0000 </r>
       </set>
       <set comment="band 8">
        <r>  0.0618  0.1417  0.0050  0.1398  0.0000  0.0000  0.0000  0.0000  0.0000 </r>
        <r>  0.0618  0.1417  0.0050  0.1398  0.0000  0.0000  0.0000  0.0000  0.0000 </r>
       </set>
      </set>
      <set comment="kpoint 115">
       <set comment="band 1">
        <r>  0.2302  0.0237  0.0040  0.0717  0.0000  0.0000  0.0000  0.0000  0.0000 </r>
        <r>  0.2302  0.0237  0.0040  0.0717  0.0000  0.0000  0.0000  0.0000  0.0000 </r>
       </set>
       <set comment="band 2">
        <r>  0.2180  0.0418  0.0077  0.0747  0.0000  0.0000  0.0000  0.0000  0.0000 </r>
        <r>  0.2180  0.0418  0.0077  0.0747  0.0000  0.0000  0.0000  0.0000  0.0000 </r>
       </set>
       <set comment="band 3">
        <r>  0.0105  0.0678  0.1412  0.0909  0.0000  0.0000  0.0000  0.0000  0.0000 </r>
        <r>  0.0105  0.0678  0.1412  0.0909  0.0000  0.0000  0.0000  0.0000  0.0000 </r>
       </set>
       <set comment="band 4">
        <r>  0.0024  0.1449  0.1403  0.0223  0.0000  0.0000  0.0000  0.0000  0.0000 </r>
        <r>  0.0024  0.1449  0.1403  0.0223  0.0000  0.0000  0.0000  0.0000  0.0000 </r>
       </set>
       <set comment="band 5">
        <r>  0.0867  0.0836  0.0313  0.0187  0.0000  0.0000  0.0000  0.0000  0.0000 </r>
        <r>  0.0867  0.0836  0.0313  0.0187  0.0000  0.0000  0.0000  0.0000  0.0000 </r>
       </set>
       <set comment="band 6">
        <r>  0.0888  0.0034  0.0302  0.0824  0.0000  0.0000  0.0000  0.0000  0.0000 </r>
        <r>  0.0888  0.0034  0.0302  0.0824  0.0000  0.0000  0.0000  0.0000  0.0000 </r>
       </set>
       <set comment="band 7">
        <r>  0.0381  0.1469  0.1554  0.0282  0.0000  0.0000  0.0000  0.0000  0.0000 </r>
        <r>  0.0381  0.1469  0.1554  0.0282  0.0000  0.0000  0.0000  0.0000  0.0000 </r>
       </set>
       <set comment="band 8">
        <r>  0.0228  0.0955  0.1817  0.0970  0.0000  0.0000  0.0000  0.0000  0.0000 </r>
        <r>  0.0228  0.0955  0.1817  0.0970  0.0000  0.0000  0.0000  0.0000  0.0000 </r>
       </set>
      </set>
      <set comment="kpoint 116">
       <set comment="band 1">
        <r>  0.2436  0.0342  0.0080  0.0571  0.0000  0.0000  0.0000  0.0000  0.0000 </r>
        <r>  0.2436  0.0342  0.0080  0.0571  0.0000  0.0000  0.0000  0.0000  0.0000 </r>
       </set>
       <set comment="band 2">
        <r>  0.2171  0.0450  0.0024  0.0724  0.0000  0.0000  0.0000  0.0000  0.0000 </r>
        <r>  0.2171  0.0450  0.0024  0.0724  0.0000  0.0000  0.0000  0.0000  0.0000 </r>
       </set>
       <set comment="band 3">
        <r>  0.0022  0.1759  0.0002  0.1124  0.0000  0.0000  0.0000  0.0000  0.0000 </r>
        <r>  0.0022  0.1759  0.0002  0.1124  0.0000  0.0000  0.0000  0.0000  0.0000 </r>
       </set>
       <set comment="band 4">
        <r>  0.0065  0.0070  0.2849  0.0141  0.0000  0.0000  0.0000  0.0000  0.0000 </r>
        <r>  0.0065  0.0070  0.2849  0.0141  0.0000  0.0000  0.0000  0.0000  0.0000 </r>
       </set>
       <set comment="band 5">
        <r>  0.0813  0.0309  0.0549  0.0479  0.0000  0.0000  0.0000  0.0000  0.0000 </r>
        <r>  0.0813  0.0309  0.0549  0.0479  0.0000  0.0000  0.0000  0.0000  0.0000 </r>
       </set>
       <set comment="band 6">
        <r>  0.0692  0.0836  0.0100  0.0734  0.0000  0.0000  0.0000  0.0000  0.0000 </r>
        <r>  0.0692  0.0836  0.0100  0.0734  0.0000  0.0000  0.0000  0.0000  0.0000 </r>
       </set>
       <set comment="band 7">
        <r>  0.0360  0.0082  0.2992  0.0162  0.0000  0.0000  0.0000  0.0000  0.0000 </r>
        <r>  0.0360  0.0082  0.2992  0.0162  0.0000  0.0000  0.0000  0.0000  0.0000 </r>
       </set>
       <set comment="band 8">
        <r>  0.0569  0.1962  0.0000  0.1121  0.0000  0.0000  0.0000  0.0000  0.0000 </r>
        <r>  0.0569  0.1962  0.0000  0.1121  0.0000  0.0000  0.0000  0.0000  0.0000 </r>
       </set>
      </set>
      <set comment="kpoint 117">
       <set comment="band 1">
        <r>  0.2452  0.0105  0.0082  0.0613  0.0000  0.0000  0.0000  0.0000  0.0000 </r>
        <r>  0.2452  0.0105  0.0082  0.0613  0.0000  0.0000  0.0000  0.0000  0.0000 </r>
       </set>
       <set comment="band 2">
        <r>  0.1948  0.0313  0.0430  0.0782  0.0000  0.0000  0.0000  0.0000  0.0000 </r>
        <r>  0.1948  0.0313  0.0430  0.0782  0.0000  0.0000  0.0000  0.0000  0.0000 </r>
       </set>
       <set comment="band 3">
        <r>  0.0207  0.0549  0.1227  0.0993  0.0000  0.0000  0.0000  0.0000  0.0000 </r>
        <r>  0.0207  0.0549  0.1227  0.0993  0.0000  0.0000  0.0000  0.0000  0.0000 </r>
       </set>
       <set comment="band 4">
        <r>  0.0058  0.1863  0.1005  0.0210  0.0000  0.0000  0.0000  0.0000  0.0000 </r>
        <r>  0.0058  0.1863  0.1005  0.0210  0.0000  0.0000  0.0000  0.0000  0.0000 </r>
       </set>
       <set comment="band 5">
        <r>  0.0549  0.1330  0.0556  0.0228  0.0000  0.0000  0.0000  0.0000  0.0000 </r>
        <r>  0.0549  0.1330  0.0556  0.0228  0.0000  0.0000  0.0000  0.0000  0.0000 </r>
       </set>
       <set comment="band 6">
        <r>  0.0007  0.0387  0.0943  0.0656  0.0000  0.0000  0.0000  0.0000  0.0000 </r>
        <r>  0.0007  0.0387  0.0943  0.0656  0.0000  0.0000  0.0000  0.0000  0.0000 </r>
       </set>
       <set comment="band 7">
        <r>  0.1576  0.0658  0.0568  0.0578  0.0000  0.0000  0.0000  0.0000  0.0000 </r>
        <r>  0.1576  0.0658  0.0568  0.0578  0.0000  0.0000  0.0000  0.0000  0.0000 </r>
       </set>
       <set comment="band 8">
        <r>  0.0347  0.0945  0.1753  0.0898  0.0000  0.0000  0.0000  0.0000  0.0000 </r>
        <r>  0.0347  0.0945  0.1753  0.0898  0.0000  0.0000  0.0000  0.0000  0.0000 </r>
       </set>
      </set>
      <set comment="kpoint 118">
       <set comment="band 1">
        <r>  0.2529  0.0201  0.0113  0.0532  0.0000  0.0000  0.0000  0.0000  0.0000 </r>
        <r>  0.2529  0.0201  0.0113  0.0532  0.0000  0.0000  0.0000  0.0000  0.0000 </r>
       </set>
       <set comment="band 2">
        <r>  0.1918  0.0257  0.0140  0.1055  0.0000  0.0000  0.0000  0.0000  0.0000 </r>
        <r>  0.1918  0.0257  0.0140  0.1055  0.0000  0.0000  0.0000  0.0000  0.0000 </r>
       </set>
       <set comment="band 3">
        <r>  0.0258  0.1050  0.0878  0.0770  0.0000  0.0000  0.0000  0.0000  0.0000 </r>
        <r>  0.0258  0.1050  0.0878  0.0770  0.0000  0.0000  0.0000  0.0000  0.0000 </r>
       </set>
       <set comment="band 4">
        <r>  0.0032  0.1214  0.1633  0.0194  0.0000  0.0000  0.0000  0.0000  0.0000 </r>
        <r>  0.0032  0.1214  0.1633  0.0194  0.0000  0.0000  0.0000  0.0000  0.0000 </r>
       </set>
       <set comment="band 5">
        <r>  0.0230  0.0985  0.0850  0.0217  0.0000  0.0000  0.0000  0.0000  0.0000 </r>
        <r>  0.0230  0.0985  0.0850  0.0217  0.0000  0.0000  0.0000  0.0000  0.0000 </r>
       </set>
       <set comment="band 6">
        <r>  0.0574  0.0625  0.1308  0.0198  0.0000  0.0000  0.0000  0.0000  0.0000 </r>
        <r>  0.0574  0.0625  0.1308  0.0198  0.0000  0.0000  0.0000  0.0000  0.0000 </r>
       </set>
       <set comment="band 7">
        <r>  0.1128  0.0883  0.0100  0.1132  0.0000  0.0000  0.0000  0.0000  0.0000 </r>
        <r>  0.1128  0.0883  0.0100  0.1132  0.0000  0.0000  0.0000  0.0000  0.0000 </r>
       </set>
       <set comment="band 8">
        <r>  0.0601  0.0652  0.1143  0.1125  0.0000  0.0000  0.0000  0.0000  0.0000 </r>
        <r>  0.0601  0.0652  0.1143  0.1125  0.0000  0.0000  0.0000  0.0000  0.0000 </r>
       </set>
      </set>
      <set comment="kpoint 119">
       <set comment="band 1">
        <r>  0.2403  0.0226  0.0106  0.0644  0.0000  0.0000  0.0000  0.0000  0.0000 </r>
        <r>  0.2403  0.0226  0.0106  0.0644  0.0000  0.0000  0.0000  0.0000  0.0000 </r>
       </set>
       <set comment="band 2">
        <r>  0.2268  0.0360  0.0217  0.0630  0.0000  0.0000  0.0000  0.0000  0.0000 </r>
        <r>  0.2268  0.0360  0.0217  0.0630  0.0000  0.0000  0.0000  0.0000  0.0000 </r>
       </set>
       <set comment="band 3">
        <r>  0.0083  0.0494  0.1231  0.1132  0.0000  0.0000  0.0000  0.0000  0.0000 </r>
        <r>  0.0083  0.0494  0.1231  0.1132  0.0000  0.0000  0.0000  0.0000  0.0000 </r>
       </set>
       <set comment="band 4">
        <r>  0.0000  0.1623  0.1160  0.0187  0.0000  0.0000  0.0000  0.0000  0.0000 </r>
        <r>  0.0000  0.1623  0.1160  0.0187  0.0000  0.0000  0.0000  0.0000  0.0000 </r>
       </set>
       <set comment="band 5">
        <r>  0.0595  0.1184  0.0565  0.0117  0.0000  0.0000  0.0000  0.0000  0.0000 </r>
        <r>  0.0595  0.1184  0.0565  0.0117  0.0000  0.0000  0.0000  0.0000  0.0000 </r>
       </set>
       <set comment="band 6">
        <r>  0.0482  0.0067  0.0621  0.1045  0.0000  0.0000  0.0000  0.0000  0.0000 </r>
        <r>  0.0482  0.0067  0.0621  0.1045  0.0000  0.0000  0.0000  0.0000  0.0000 </r>
       </set>
       <set comment="band 7">
        <r>  0.0873  0.1214  0.1027  0.0255  0.0000  0.0000  0.0000  0.0000  0.0000 </r>
        <r>  0.0873  0.1214  0.1027  0.0255  0.0000  0.0000  0.0000  0.0000  0.0000 </r>
       </set>
       <set comment="band 8">
        <r>  0.0529  0.0576  0.1345  0.1105  0.0000  0.0000  0.0000  0.0000  0.0000 </r>
        <r>  0.0529  0.0576  0.1345  0.1105  0.0000  0.0000  0.0000  0.0000  0.0000 </r>
       </set>
      </set>
      <set comment="kpoint 120">
       <set comment="band 1">
        <r>  0.2495  0.0374  0.0167  0.0414  0.0000  0.0000  0.0000  0.0000  0.0000 </r>
        <r>  0.2495  0.0374  0.0167  0.0414  0.0000  0.0000  0.0000  0.0000  0.0000 </r>
       </set>
       <set comment="band 2">
        <r>  0.2248  0.0468  0.0110  0.0621  0.0000  0.0000  0.0000  0.0000  0.0000 </r>
        <r>  0.2248  0.0468  0.0110  0.0621  0.0000  0.0000  0.0000  0.0000  0.0000 </r>
       </set>
       <set comment="band 3">
        <r>  0.0009  0.1573  0.0024  0.1239  0.0000  0.0000  0.0000  0.0000  0.0000 </r>
        <r>  0.0009  0.1573  0.0024  0.1239  0.0000  0.0000  0.0000  0.0000  0.0000 </r>
       </set>
       <set comment="band 4">
        <r>  0.0032  0.0173  0.2445  0.0339  0.0000  0.0000  0.0000  0.0000  0.0000 </r>
        <r>  0.0032  0.0173  0.2445  0.0339  0.0000  0.0000  0.0000  0.0000  0.0000 </r>
       </set>
       <set comment="band 5">
        <r>  0.0383  0.0501  0.0888  0.0535  0.0000  0.0000  0.0000  0.0000  0.0000 </r>
        <r>  0.0383  0.0501  0.0888  0.0535  0.0000  0.0000  0.0000  0.0000  0.0000 </r>
       </set>
       <set comment="band 6">
        <r>  0.0004  0.0485  0.1563  0.0293  0.0000  0.0000  0.0000  0.0000  0.0000 </r>
        <r>  0.0004  0.0485  0.1563  0.0293  0.0000  0.0000  0.0000  0.0000  0.0000 </r>
       </set>
       <set comment="band 7">
        <r>  0.1112  0.0757  0.0735  0.0925  0.0000  0.0000  0.0000  0.0000  0.0000 </r>
        <r>  0.1112  0.0757  0.0735  0.0925  0.0000  0.0000  0.0000  0.0000  0.0000 </r>
       </set>
       <set comment="band 8">
        <r>  0.1017  0.1308  0.0042  0.0933  0.0000  0.0000  0.0000  0.0000  0.0000 </r>
        <r>  0.1017  0.1308  0.0042  0.0933  0.0000  0.0000  0.0000  0.0000  0.0000 </r>
       </set>
      </set>
     </set>
    </set>
   </array>
  </projected>
 </calculation>
 <structure name="finalpos" >
  <crystal>
   <varray name="basis" >
    <v>       2.18050236       0.00000000       1.25891346 </v>
    <v>       0.72683412       2.05579703       1.25891346 </v>
    <v>       0.00000000       0.00000000       2.51782692 </v>
   </varray>
   <i name="volume">     11.28658789 </i>
   <varray name="rec_basis" >
    <v>       0.45860991      -0.16214311       0.00000000 </v>
    <v>       0.00000000       0.48642934       0.00000000 </v>
    <v>      -0.22930496      -0.16214311       0.39716789 </v>
   </varray>
  </crystal>
  <varray name="positions" >
   <v>       0.87500000       0.87500000       0.87500000 </v>
   <v>       0.12500000       0.12500000       0.12500000 </v>
  </varray>
 </structure>
</modeling>
