    2    2    1    1
  0.5643294E+01  0.2517827E-09  0.2517827E-09  0.2517827E-09  0.5000000E-15
  1.000000000000000E-004
  CAR 
 r-GeO2 ENCUT convergence test           
      8    120      8
 
  0.0000000E+00  0.0000000E+00  0.0000000E+00  0.2962963E-03
    1      -12.159002   1.000000
    2        8.886363   1.000000
    3        8.886364   1.000000
    4        8.886365   1.000000
    5       14.990144   0.000000
    6       14.990147   0.000000
    7       14.990148   0.000000
    8       22.847173   0.000000
 
  0.6666667E-01 -0.3295382E-17  0.0000000E+00  0.2370370E-02
    1      -12.037848   1.000000
    2        8.119142   1.000000
    3        8.688090   1.000000
    4        8.688091   1.000000
    5       15.256247   0.000000
    6       15.256249   0.000000
    7       15.460136   0.000000
    8       22.957476   0.000000
 
  0.1333333E+00 -0.6590764E-17  0.0000000E+00  0.2370370E-02
    1      -11.675409   1.000000
    2        6.355911   1.000000
    3        8.204463   1.000000
    4        8.204464   1.000000
    5       15.911076   0.000000
    6       15.911078   0.000000
    7       16.358836   0.000000
    8       23.286700   0.000000
 
  0.2000000E+00 -0.2235735E-16  0.0000000E+00  0.2370370E-02
    1      -11.075330   1.000000
    2        4.223058   1.000000
    3        7.626998   1.000000
    4        7.627000   1.000000
    5       16.676098   0.000000
    6       16.676099   0.000000
    7       17.148945   0.000000
    8       23.808422   0.000000
 
  0.2666667E+00  0.1781357E-17  0.0000000E+00  0.2370370E-02
    1      -10.245556   1.000000
    2        2.007831   1.000000
    3        7.085270   1.000000
    4        7.085271   1.000000
    5       17.319258   0.000000
    6       17.319259   0.000000
    7       17.700583   0.000000
    8       24.440884   0.000000
 
  0.3333333E+00 -0.8131428E-17  0.0000000E+00  0.2370370E-02
    1       -9.203227   1.000000
    2       -0.144812   1.000000
    3        6.645973   1.000000
    4        6.645975   1.000000
    5       17.725738   0.000000
    6       17.725739   0.000000
    7       18.047383   0.000000
    8       25.052749   0.000000
 
  0.4000000E+00 -0.4471469E-16  0.0000000E+00  0.2370370E-02
    1       -7.996600   1.000000
    2       -2.120116   1.000000
    3        6.341355   1.000000
    4        6.341356   1.000000
    5       17.917149   0.000000
    6       17.917150   0.000000
    7       18.247009   0.000000
    8       25.504790   0.000000
 
  0.4666667E+00 -0.4454063E-16  0.0000000E+00  0.2370370E-02
    1       -6.850303   1.000000
    2       -3.658515   1.000000
    3        6.186225   1.000000
    4        6.186227   1.000000
    5       17.979987   0.000000
    6       17.979988   0.000000
    7       18.338249   0.000000
    8       25.734168   0.000000
 
  0.6666667E-01  0.6666667E-01  0.0000000E+00  0.1777778E-02
    1      -11.997469   1.000000
    2        8.317458   1.000000
    3        8.317459   1.000000
    4        8.493605   1.000000
    5       14.888923   0.000000
    6       15.706868   0.000000
    7       15.706868   0.000000
    8       22.958887   0.000000
 
  0.1333333E+00  0.6666667E-01  0.0000000E+00  0.7111111E-02
    1      -11.715510   1.000000
    2        6.943734   1.000000
    3        7.740970   1.000000
    4        8.292624   1.000000
    5       15.084381   0.000000
    6       16.478834   0.000000
    7       16.535928   0.000000
    8       23.107989   0.000000
 
  0.2000000E+00  0.6666667E-01  0.0000000E+00  0.7111111E-02
    1      -11.194590   1.000000
    2        4.954259   1.000000
    3        7.136641   1.000000
    4        7.846192   1.000000
    5       15.703535   0.000000
    6       17.312444   0.000000
    7       17.371368   0.000000
    8       23.394298   0.000000
 
  0.2666667E+00  0.6666667E-01  0.0000000E+00  0.7111111E-02
    1      -10.441088   1.000000
    2        2.785489   1.000000
    3        6.611769   1.000000
    4        7.276575   1.000000
    5       16.435775   0.000000
    6       17.988205   0.000000
    7       17.989870   0.000000
    8       23.812056   0.000000
 
  0.3333333E+00  0.6666667E-01  0.0000000E+00  0.7111111E-02
    1       -9.468193   1.000000
    2        0.623545   1.000000
    3        6.220716   1.000000
    4        6.717162   1.000000
    5       17.039252   0.000000
    6       18.385224   0.000000
    7       18.387971   0.000000
    8       24.368243   0.000000
 
  0.4000000E+00  0.6666667E-01  0.0000000E+00  0.7111111E-02
    1       -8.308810   1.000000
    2       -1.410490   1.000000
    3        5.988496   1.000000
    4        6.241232   1.000000
    5       17.437312   0.000000
    6       18.511475   0.000000
    7       18.617906   0.000000
    8       24.990426   0.000000
 
  0.4666667E+00  0.6666667E-01  0.0000000E+00  0.7111111E-02
    1       -7.088866   1.000000
    2       -3.143837   1.000000
    3        5.888275   1.000000
    4        5.923663   1.000000
    5       17.689715   0.000000
    6       18.450530   0.000000
    7       18.733032   0.000000
    8       25.486598   0.000000
 
 -0.4666667E+00  0.6666667E-01  0.0000000E+00  0.7111111E-02
    1       -6.546208   1.000000
    2       -3.815964   1.000000
    3        5.681126   1.000000
    4        6.024818   1.000000
    5       17.879496   0.000000
    6       18.293617   0.000000
    7       18.755438   0.000000
    8       25.663605   0.000000
 
 -0.4000000E+00  0.6666667E-01  0.0000000E+00  0.7111111E-02
    1       -7.483116   1.000000
    2       -2.619051   1.000000
    3        5.633596   1.000000
    4        6.283047   1.000000
    5       18.031515   0.000000
    6       18.070580   0.000000
    7       18.689252   0.000000
    8       25.462827   0.000000
 
 -0.3333333E+00  0.6666667E-01  0.0000000E+00  0.7111111E-02
    1       -8.712461   1.000000
    2       -0.751182   1.000000
    3        5.752689   1.000000
    4        6.682039   1.000000
    5       17.744565   0.000000
    6       18.094342   0.000000
    7       18.512802   0.000000
    8       24.961755   0.000000
 
 -0.2666667E+00  0.6666667E-01  0.0000000E+00  0.7111111E-02
    1       -9.815827   1.000000
    2        1.339490   1.000000
    3        6.038053   1.000000
    4        7.193950   1.000000
    5       17.250077   0.000000
    6       17.975039   0.000000
    7       18.165579   0.000000
    8       24.352179   0.000000
 
 -0.2000000E+00  0.6666667E-01  0.0000000E+00  0.7111111E-02
    1      -10.717657   1.000000
    2        3.518105   1.000000
    3        6.479148   1.000000
    4        7.769684   1.000000
    5       16.577023   0.000000
    6       17.533600   0.000000
    7       17.643248   0.000000
    8       23.809162   0.000000
 
 -0.1333333E+00  0.6666667E-01  0.0000000E+00  0.7111111E-02
    1      -11.394545   1.000000
    2        5.644035   1.000000
    3        7.051889   1.000000
    4        8.318118   1.000000
    5       15.849806   0.000000
    6       16.721357   0.000000
    7       17.000174   0.000000
    8       23.392266   0.000000
 
 -0.6666667E-01  0.6666667E-01  0.0000000E+00  0.3555556E-02
    1      -11.836259   1.000000
    2        7.386435   1.000000
    3        7.784519   1.000000
    4        8.682497   1.000000
    5       15.321992   0.000000
    6       15.871286   0.000000
    7       16.157175   0.000000
    8       23.104715   0.000000
 
  0.1333333E+00  0.1333333E+00  0.0000000E+00  0.1777778E-02
    1      -11.514416   1.000000
    2        7.111787   1.000000
    3        7.111787   1.000000
    4        7.411762   1.000000
    5       14.628628   0.000000
    6       17.348480   0.000000
    7       17.348481   0.000000
    8       22.871098   0.000000
 
  0.2000000E+00  0.1333333E+00  0.0000000E+00  0.7111111E-02
    1      -11.074027   1.000000
    2        5.563358   1.000000
    3        6.482148   1.000000
    4        7.146537   1.000000
    5       14.786397   0.000000
    6       18.262026   0.000000
    7       18.278312   0.000000
    8       22.618039   0.000000
 
  0.2666667E+00  0.1333333E+00  0.0000000E+00  0.7111111E-02
    1      -10.399493   1.000000
    2        3.570309   1.000000
    3        5.951479   1.000000
    4        6.676943   1.000000
    5       15.396874   0.000000
    6       18.981826   0.000000
    7       19.054610   0.000000
    8       22.489959   0.000000
 
  0.3333333E+00  0.1333333E+00  0.0000000E+00  0.7111111E-02
    1       -9.501384   1.000000
    2        1.484442   1.000000
    3        5.572085   1.000000
    4        6.069885   1.000000
    5       16.107070   0.000000
    6       19.456405   0.000000
    7       19.531597   0.000000
    8       22.711470   0.000000
 
  0.4000000E+00  0.1333333E+00  0.0000000E+00  0.7111111E-02
    1       -8.403663   1.000000
    2       -0.544701   1.000000
    3        5.368720   1.000000
    4        5.465882   1.000000
    5       16.661244   0.000000
    6       19.679138   0.000000
    7       19.737812   0.000000
    8       23.404203   0.000000
 
  0.4666667E+00  0.1333333E+00  0.0000000E+00  0.7111111E-02
    1       -7.183093   1.000000
    2       -2.371423   1.000000
    3        4.946832   1.000000
    4        5.349638   1.000000
    5       17.039122   0.000000
    6       19.570780   0.000000
    7       19.882723   0.000000
    8       24.392946   0.000000
 
 -0.4666667E+00  0.1333333E+00  0.0000000E+00  0.7111111E-02
    1       -6.258828   1.000000
    2       -3.540357   1.000000
    3        4.560103   1.000000
    4        5.511713   1.000000
    5       17.346966   0.000000
    6       19.304584   0.000000
    7       19.930051   0.000000
    8       25.208711   0.000000
 
 -0.4000000E+00  0.1333333E+00  0.0000000E+00  0.7111111E-02
    1       -6.798391   1.000000
    2       -2.870700   1.000000
    3        4.334705   1.000000
    4        5.841957   1.000000
    5       17.652560   0.000000
    6       18.933821   0.000000
    7       19.890588   0.000000
    8       25.308246   0.000000
 
 -0.3333333E+00  0.1333333E+00  0.0000000E+00  0.7111111E-02
    1       -8.007326   1.000000
    2       -1.163487   1.000000
    3        4.289125   1.000000
    4        6.316138   1.000000
    5       17.935922   0.000000
    6       18.448504   0.000000
    7       19.736668   0.000000
    8       24.711654   0.000000
 
 -0.2666667E+00  0.1333333E+00  0.0000000E+00  0.7111111E-02
    1       -9.158589   1.000000
    2        0.824108   1.000000
    3        4.436005   1.000000
    4        6.893840   1.000000
    5       17.811719   0.000000
    6       18.103120   0.000000
    7       19.370296   0.000000
    8       23.985331   0.000000
 
 -0.2000000E+00  0.1333333E+00  0.0000000E+00  0.7111111E-02
    1      -10.125973   1.000000
    2        2.889625   1.000000
    3        4.795636   1.000000
    4        7.506734   1.000000
    5       17.045114   0.000000
    6       18.038244   0.000000
    7       18.667671   0.000000
    8       23.556429   0.000000
 
 -0.1333333E+00  0.1333333E+00  0.0000000E+00  0.3555556E-02
    1      -10.875907   1.000000
    2        4.699378   1.000000
    3        5.548970   1.000000
    4        8.038458   1.000000
    5       16.302298   0.000000
    6       17.667250   0.000000
    7       17.695218   0.000000
    8       23.436530   0.000000
 
  0.2000000E+00  0.2000000E+00  0.0000000E+00  0.1777778E-02
    1      -10.714775   1.000000
    2        5.827452   1.000000
    3        5.827452   1.000000
    4        5.834535   1.000000
    5       14.309647   0.000000
    6       19.335297   0.000000
    7       19.335297   0.000000
    8       21.713638   0.000000
 
  0.2666667E+00  0.2000000E+00  0.0000000E+00  0.7111111E-02
    1      -10.120840   1.000000
    2        4.151674   1.000000
    3        5.274308   1.000000
    4        5.622677   1.000000
    5       14.482537   0.000000
    6       20.236386   0.000000
    7       20.266797   0.000000
    8       20.996028   0.000000
 
  0.3333333E+00  0.2000000E+00  0.0000000E+00  0.7111111E-02
    1       -9.300939   1.000000
    2        2.281083   1.000000
    3        4.878327   1.000000
    4        5.060209   1.000000
    5       15.111738   0.000000
    6       20.633981   0.000000
    7       20.901315   0.000000
    8       20.962988   0.000000
 
  0.4000000E+00  0.2000000E+00  0.0000000E+00  0.7111111E-02
    1       -8.273649   1.000000
    2        0.365621   1.000000
    3        4.367192   1.000000
    4        4.667213   1.000000
    5       15.781093   0.000000
    6       21.002404   0.000000
    7       21.161997   0.000000
    8       21.404538   0.000000
 
  0.4666667E+00  0.2000000E+00  0.0000000E+00  0.7111111E-02
    1       -7.089822   1.000000
    2       -1.451615   1.000000
    3        3.703073   1.000000
    4        4.651532   1.000000
    5       16.260560   0.000000
    6       21.088853   0.000000
    7       21.381834   0.000000
    8       22.365065   0.000000
 
 -0.4666667E+00  0.2000000E+00  0.0000000E+00  0.7111111E-02
    1       -5.978874   1.000000
    2       -2.883566   1.000000
    3        3.155640   1.000000
    4        4.829419   1.000000
    5       16.630580   0.000000
    6       20.773007   0.000000
    7       21.487787   0.000000
    8       23.823639   0.000000
 
 -0.4000000E+00  0.2000000E+00  0.0000000E+00  0.7111111E-02
    1       -5.995315   1.000000
    2       -2.848129   1.000000
    3        2.773946   1.000000
    4        5.187665   1.000000
    5       17.015645   0.000000
    6       20.282429   0.000000
    7       21.484651   0.000000
    8       24.868138   0.000000
 
 -0.3333333E+00  0.2000000E+00  0.0000000E+00  0.7111111E-02
    1       -7.108890   1.000000
    2       -1.377624   1.000000
    3        2.590942   1.000000
    4        5.699494   1.000000
    5       17.442262   0.000000
    6       19.629089   0.000000
    7       21.354819   0.000000
    8       24.534905   0.000000
 
 -0.2666667E+00  0.2000000E+00  0.0000000E+00  0.7111111E-02
    1       -8.287018   1.000000
    2        0.444009   1.000000
    3        2.651977   1.000000
    4        6.318087   1.000000
    5       17.845438   0.000000
    6       18.805738   0.000000
    7       20.911994   0.000000
    8       23.698464   0.000000
 
 -0.2000000E+00  0.2000000E+00  0.0000000E+00  0.3555556E-02
    1       -9.309514   1.000000
    2        2.091829   1.000000
    3        3.214471   1.000000
    4        6.963947   1.000000
    5       17.879567   0.000000
    6       18.091302   0.000000
    7       19.923453   0.000000
    8       23.385652   0.000000
 
  0.2666667E+00  0.2666667E+00  0.0000000E+00  0.1777778E-02
    1       -9.608083   1.000000
    2        3.927908   1.000000
    3        4.690290   1.000000
    4        4.690290   1.000000
    5       14.042568   0.000000
    6       19.750881   0.000000
    7       21.400126   0.000000
    8       21.400126   0.000000
 
  0.3333333E+00  0.2666667E+00  0.0000000E+00  0.7111111E-02
    1       -8.868482   1.000000
    2        2.575005   1.000000
    3        4.171197   1.000000
    4        4.261289   1.000000
    5       14.275498   0.000000
    6       19.006680   0.000000
    7       22.253599   0.000000
    8       22.257503   0.000000
 
  0.4000000E+00  0.2666667E+00  0.0000000E+00  0.7111111E-02
    1       -7.917104   1.000000
    2        0.995743   1.000000
    3        3.395803   1.000000
    4        4.019709   1.000000
    5       14.929164   0.000000
    6       18.969377   0.000000
    7       22.705589   0.000000
    8       22.795667   0.000000
 
  0.4666667E+00  0.2666667E+00  0.0000000E+00  0.7111111E-02
    1       -6.789983   1.000000
    2       -0.621100   1.000000
    3        2.547159   1.000000
    4        3.979431   1.000000
    5       15.516444   0.000000
    6       19.849404   0.000000
    7       22.741163   0.000000
    8       23.093186   0.000000
 
 -0.4666667E+00  0.2666667E+00  0.0000000E+00  0.7111111E-02
    1       -5.620520   1.000000
    2       -2.075253   1.000000
    3        1.803414   1.000000
    4        4.141131   1.000000
    5       15.926517   0.000000
    6       21.447432   0.000000
    7       22.427779   0.000000
    8       23.271614   0.000000
 
 -0.4000000E+00  0.2666667E+00  0.0000000E+00  0.7111111E-02
    1       -5.150853   1.000000
    2       -2.577472   1.000000
    3        1.253367   1.000000
    4        4.493493   1.000000
    5       16.332811   0.000000
    6       21.836247   0.000000
    7       22.865341   0.000000
    8       23.762963   0.000000
 
 -0.3333333E+00  0.2666667E+00  0.0000000E+00  0.7111111E-02
    1       -6.058301   1.000000
    2       -1.460396   1.000000
    3        0.968221   1.000000
    4        5.010798   1.000000
    5       16.819623   0.000000
    6       20.997835   0.000000
    7       23.029887   0.000000
    8       24.343673   0.000000
 
 -0.2666667E+00  0.2666667E+00  0.0000000E+00  0.3555556E-02
    1       -7.228207   1.000000
    2       -0.116746   1.000000
    3        1.235498   1.000000
    4        5.646068   1.000000
    5       17.360461   0.000000
    6       19.946574   0.000000
    7       22.434438   0.000000
    8       23.703002   0.000000
 
  0.3333333E+00  0.3333333E+00  0.0000000E+00  0.1777778E-02
    1       -8.209880   1.000000
    2        1.818132   1.000000
    3        3.791599   1.000000
    4        3.791599   1.000000
    5       13.921316   0.000000
    6       17.824113   0.000000
    7       23.365482   0.000000
    8       23.365483   0.000000
 
  0.4000000E+00  0.3333333E+00  0.0000000E+00  0.7111111E-02
    1       -7.337224   1.000000
    2        0.643351   1.000000
    3        3.180398   1.000000
    4        3.507319   1.000000
    5       14.246952   0.000000
    6       17.283592   0.000000
    7       24.064119   0.000000
    8       24.103121   0.000000
 
  0.4666667E+00  0.3333333E+00  0.0000000E+00  0.7111111E-02
    1       -6.277997   1.000000
    2       -0.570676   1.000000
    3        2.181454   1.000000
    4        3.426296   1.000000
    5       14.893013   0.000000
    6       17.628994   0.000000
    7       24.269174   0.000000
    8       24.504558   0.000000
 
 -0.4666667E+00  0.3333333E+00  0.0000000E+00  0.7111111E-02
    1       -5.116375   1.000000
    2       -1.727285   1.000000
    3        1.114990   1.000000
    4        3.552392   1.000000
    5       15.348613   0.000000
    6       19.042218   0.000000
    7       24.001936   0.000000
    8       24.674665   0.000000
 
 -0.4000000E+00  0.3333333E+00  0.0000000E+00  0.7111111E-02
    1       -4.331110   1.000000
    2       -2.414623   1.000000
    3        0.283983   1.000000
    4        3.877132   1.000000
    5       15.737753   0.000000
    6       21.070241   0.000000
    7       23.324027   0.000000
    8       24.699230   0.000000
 
 -0.3333333E+00  0.3333333E+00  0.0000000E+00  0.3555556E-02
    1       -4.960701   1.000000
    2       -1.819669   1.000000
    3        0.032305   1.000000
    4        4.377749   1.000000
    5       16.225007   0.000000
    6       22.290979   0.000000
    7       23.040630   0.000000
    8       24.498926   0.000000
 
  0.4000000E+00  0.4000000E+00  0.0000000E+00  0.1777778E-02
    1       -6.543707   1.000000
    2       -0.382281   1.000000
    3        3.174813   1.000000
    4        3.174813   1.000000
    5       14.022033   0.000000
    6       16.268184   0.000000
    7       25.019694   0.000000
    8       25.019695   0.000000
 
  0.4666667E+00  0.4000000E+00  0.0000000E+00  0.7111111E-02
    1       -5.558070   1.000000
    2       -1.472727   1.000000
    3        2.631609   1.000000
    4        3.044584   1.000000
    5       14.455603   0.000000
    6       15.984311   0.000000
    7       25.424774   0.000000
    8       25.508212   0.000000
 
 -0.4666667E+00  0.4000000E+00  0.0000000E+00  0.7111111E-02
    1       -4.437191   1.000000
    2       -2.461530   1.000000
    3        1.631072   1.000000
    4        3.123994   1.000000
    5       14.962279   0.000000
    6       16.856423   0.000000
    7       25.243407   0.000000
    8       25.632628   0.000000
 
 -0.4000000E+00  0.4000000E+00  0.0000000E+00  0.3555556E-02
    1       -3.661906   1.000000
    2       -2.971864   1.000000
    3        0.605353   1.000000
    4        3.407846   1.000000
    5       15.291985   0.000000
    6       18.769325   0.000000
    7       24.513354   0.000000
    8       25.412839   0.000000
 
  0.4666667E+00  0.4666667E+00  0.0000000E+00  0.1777778E-02
    1       -4.645661   1.000000
    2       -2.567764   1.000000
    3        2.861709   1.000000
    4        2.861709   1.000000
    5       14.408328   0.000000
    6       15.139230   0.000000
    7       26.016786   0.000000
    8       26.016788   0.000000
 
 -0.4666667E+00  0.4666667E+00  0.0000000E+00  0.3555556E-02
    1       -3.604988   1.000000
    2       -3.552415   1.000000
    3        2.454062   1.000000
    4        2.888757   1.000000
    5       14.791019   0.000000
    6       15.281587   0.000000
    7       25.951227   0.000000
    8       26.057997   0.000000
 
  0.2000000E+00  0.1333333E+00  0.6666667E-01  0.7111111E-02
    1      -11.354246   1.000000
    2        6.050196   1.000000
    3        6.629126   1.000000
    4        8.037260   1.000000
    5       15.232864   0.000000
    6       17.338026   0.000000
    7       17.374399   0.000000
    8       23.113598   0.000000
 
  0.2666667E+00  0.1333333E+00  0.6666667E-01  0.1422222E-01
    1      -10.756458   1.000000
    2        4.250180   1.000000
    3        5.879408   1.000000
    4        7.610236   1.000000
    5       15.828703   0.000000
    6       18.047938   0.000000
    7       18.256330   0.000000
    8       23.157624   0.000000
 
  0.3333333E+00  0.1333333E+00  0.6666667E-01  0.1422222E-01
    1       -9.930348   1.000000
    2        2.153001   1.000000
    3        5.401984   1.000000
    4        7.037393   1.000000
    5       16.573397   0.000000
    6       18.439596   0.000000
    7       18.997851   0.000000
    8       23.389647   0.000000
 
  0.4000000E+00  0.1333333E+00  0.6666667E-01  0.1422222E-01
    1       -8.893530   1.000000
    2        0.065582   1.000000
    3        5.096535   1.000000
    4        6.460798   1.000000
    5       17.203616   0.000000
    6       18.568846   0.000000
    7       19.457076   0.000000
    8       23.957481   0.000000
 
  0.4666667E+00  0.1333333E+00  0.6666667E-01  0.1422222E-01
    1       -7.695139   1.000000
    2       -1.869464   1.000000
    3        4.950464   1.000000
    4        5.980125   1.000000
    5       17.622751   0.000000
    6       18.514547   0.000000
    7       19.689092   0.000000
    8       24.742280   0.000000
 
 -0.4666667E+00  0.1333333E+00  0.6666667E-01  0.1422222E-01
    1       -6.560310   1.000000
    2       -3.382198   1.000000
    3        4.921320   1.000000
    4        5.685671   1.000000
    5       17.851636   0.000000
    6       18.403607   0.000000
    7       19.784036   0.000000
    8       25.345878   0.000000
 
  0.2666667E+00  0.2000000E+00  0.6666667E-01  0.7111111E-02
    1      -10.556854   1.000000
    2        4.640867   1.000000
    3        5.380047   1.000000
    4        6.752635   1.000000
    5       14.942152   0.000000
    6       19.038861   0.000000
    7       19.321834   0.000000
    8       22.078164   0.000000
 
  0.3333333E+00  0.2000000E+00  0.6666667E-01  0.1422222E-01
    1       -9.809417   1.000000
    2        2.918608   1.000000
    3        4.693488   1.000000
    4        6.272194   1.000000
    5       15.575204   0.000000
    6       19.513307   0.000000
    7       20.245695   0.000000
    8       21.785969   0.000000
 
  0.4000000E+00  0.2000000E+00  0.6666667E-01  0.1422222E-01
    1       -8.845871   1.000000
    2        0.948818   1.000000
    3        4.307413   1.000000
    4        5.691403   1.000000
    5       16.315308   0.000000
    6       19.685799   0.000000
    7       20.837437   0.000000
    8       22.083939   0.000000
 
  0.4666667E+00  0.2000000E+00  0.6666667E-01  0.1422222E-01
    1       -7.700538   1.000000
    2       -0.971561   1.000000
    3        4.052004   1.000000
    4        5.198207   1.000000
    5       16.879410   0.000000
    6       19.625828   0.000000
    7       21.151289   0.000000
    8       22.992675   0.000000
 
 -0.4666667E+00  0.2000000E+00  0.6666667E-01  0.1422222E-01
    1       -6.501402   1.000000
    2       -2.632524   1.000000
    3        3.821834   1.000000
    4        4.973050   1.000000
    5       17.262785   0.000000
    6       19.424641   0.000000
    7       21.293872   0.000000
    8       24.177264   0.000000
 
 -0.4000000E+00  0.2000000E+00  0.6666667E-01  0.1422222E-01
    1       -5.976358   1.000000
    2       -3.270355   1.000000
    3        3.587952   1.000000
    4        5.084326   1.000000
    5       17.589330   0.000000
    6       19.127961   0.000000
    7       21.292682   0.000000
    8       24.957233   0.000000
 
 -0.3333333E+00  0.2000000E+00  0.6666667E-01  0.1422222E-01
    1       -6.894336   1.000000
    2       -2.107903   1.000000
    3        3.440696   1.000000
    4        5.451982   1.000000
    5       17.912916   0.000000
    6       18.738119   0.000000
    7       21.169394   0.000000
    8       24.582155   0.000000
 
 -0.2666667E+00  0.2000000E+00  0.6666667E-01  0.1422222E-01
    1       -8.103733   1.000000
    2       -0.315329   1.000000
    3        3.454770   1.000000
    4        5.987366   1.000000
    5       17.976792   0.000000
    6       18.420269   0.000000
    7       20.892932   0.000000
    8       23.628218   0.000000
 
 -0.2000000E+00  0.2000000E+00  0.6666667E-01  0.1422222E-01
    1       -9.193096   1.000000
    2        1.629702   1.000000
    3        3.685597   1.000000
    4        6.607393   1.000000
    5       17.282957   0.000000
    6       18.532465   0.000000
    7       20.317700   0.000000
    8       22.956367   0.000000
 
 -0.1333333E+00  0.2000000E+00  0.6666667E-01  0.7111111E-02
    1      -10.085594   1.000000
    2        3.352528   1.000000
    3        4.357552   1.000000
    4        7.199750   1.000000
    5       16.446494   0.000000
    6       18.455301   0.000000
    7       19.357543   0.000000
    8       22.888691   0.000000
 
  0.3333333E+00  0.2666667E+00  0.6666667E-01  0.7111111E-02
    1       -9.454023   1.000000
    2        3.190800   1.000000
    3        4.269948   1.000000
    4        5.226729   1.000000
    5       14.687620   0.000000
    6       20.200906   0.000000
    7       20.885529   0.000000
    8       21.407093   0.000000
 
  0.4000000E+00  0.2666667E+00  0.6666667E-01  0.1422222E-01
    1       -8.567964   1.000000
    2        1.649436   1.000000
    3        3.608305   1.000000
    4        4.725483   1.000000
    5       15.372425   0.000000
    6       19.963530   0.000000
    7       21.178135   0.000000
    8       22.297656   0.000000
 
  0.4666667E+00  0.2666667E+00  0.6666667E-01  0.1422222E-01
    1       -7.488436   1.000000
    2       -0.089880   1.000000
    3        3.119813   1.000000
    4        4.291285   1.000000
    5       16.074695   0.000000
    6       20.473380   0.000000
    7       21.222801   0.000000
    8       22.850313   0.000000
 
 -0.4666667E+00  0.2666667E+00  0.6666667E-01  0.1422222E-01
    1       -6.294703   1.000000
    2       -1.739853   1.000000
    3        2.611889   1.000000
    4        4.166397   1.000000
    5       16.553420   0.000000
    6       20.946274   0.000000
    7       21.793432   0.000000
    8       23.156560   0.000000
 
 -0.4000000E+00  0.2666667E+00  0.6666667E-01  0.1422222E-01
    1       -5.408760   1.000000
    2       -2.801543   1.000000
    3        2.149660   1.000000
    4        4.346382   1.000000
    5       16.939038   0.000000
    6       20.631070   0.000000
    7       22.674426   0.000000
    8       23.816544   0.000000
 
 -0.3333333E+00  0.2666667E+00  0.6666667E-01  0.1422222E-01
    1       -5.947020   1.000000
    2       -2.134239   1.000000
    3        1.836870   1.000000
    4        4.754416   1.000000
    5       17.363023   0.000000
    6       20.107223   0.000000
    7       22.655389   0.000000
    8       24.386826   0.000000
 
 -0.2666667E+00  0.2666667E+00  0.6666667E-01  0.1422222E-01
    1       -7.121407   1.000000
    2       -0.562074   1.000000
    3        1.758512   1.000000
    4        5.325463   1.000000
    5       17.838609   0.000000
    6       19.328625   0.000000
    7       22.411798   0.000000
    8       23.535600   0.000000
 
 -0.2000000E+00  0.2666667E+00  0.6666667E-01  0.7111111E-02
    1       -8.244908   1.000000
    2        0.933229   1.000000
    3        2.198422   1.000000
    4        5.982267   1.000000
    5       18.281263   0.000000
    6       18.313210   0.000000
    7       21.660545   0.000000
    8       22.844388   0.000000
 
  0.4000000E+00  0.3333333E+00  0.6666667E-01  0.7111111E-02
    1       -8.062563   1.000000
    2        1.530527   1.000000
    3        3.396482   1.000000
    4        3.896052   1.000000
    5       14.569485   0.000000
    6       18.340315   0.000000
    7       22.728313   0.000000
    8       23.386446   0.000000
 
  0.4666667E+00  0.3333333E+00  0.6666667E-01  0.1422222E-01
    1       -7.056328   1.000000
    2        0.255778   1.000000
    3        2.601567   1.000000
    4        3.521447   1.000000
    5       15.307055   0.000000
    6       18.394546   0.000000
    7       22.867991   0.000000
    8       24.107885   0.000000
 
 -0.4666667E+00  0.3333333E+00  0.6666667E-01  0.1422222E-01
    1       -5.903308   1.000000
    2       -1.098508   1.000000
    3        1.717915   1.000000
    4        3.450415   1.000000
    5       15.911509   0.000000
    6       19.443223   0.000000
    7       22.747793   0.000000
    8       24.379409   0.000000
 