    2    2    1    1
  0.5643294E+01  0.2517827E-09  0.2517827E-09  0.2517827E-09  0.5000000E-15
  1.000000000000000E-004
  CAR 
 Diamont Test Results                    
      8      3      8
 
  0.0000000E+00  0.0000000E+00  0.0000000E+00  0.1250000E+00
    1      -11.963706   1.000000
    2        9.297803   1.000000
    3        9.297832   1.000000
    4        9.297833   1.000000
    5       15.356638   0.000000
    6       15.356656   0.000000
    7       15.356660   0.000000
    8       23.130618   0.000000
 
  0.5000000E+00  0.2114441E-16  0.0000000E+00  0.5000000E+00
    1       -6.382966   1.000000
    2       -3.724847   1.000000
    3        6.502019   1.000000
    4        6.502042   1.000000
    5       18.317342   0.000000
    6       18.317366   0.000000
    7       18.629860   0.000000
    8       26.496715   0.000000
 
  0.5000000E+00  0.5000000E+00  0.0000000E+00  0.3750000E+00
    1       -3.375028   1.000000
    2       -3.375028   1.000000
    3        3.140810   1.000000
    4        3.140823   1.000000
    5       14.953449   0.000000
    6       14.953461   0.000000
    7       27.048465   0.000000
    8       27.048492   0.000000
