PROCAR lm decomposed
# of k-points:    3         # of bands:    8         # of ions:    2

 k-point     1 :    0.00000000 0.00000000 0.00000000     weight = 0.12500000

band     1 # energy  -11.96370606 # occ.  2.00000000
 
ion      s     py     pz     px    dxy    dyz    dz2    dxz  x2-y2    tot
    1  0.286  0.000  0.000  0.000  0.000  0.000  0.000  0.000  0.000  0.286
    2  0.286  0.000  0.000  0.000  0.000  0.000  0.000  0.000  0.000  0.286
tot    0.572  0.000  0.000  0.000  0.000  0.000  0.000  0.000  0.000  0.572
 
band     2 # energy    9.29780277 # occ.  2.00000000
 
ion      s     py     pz     px    dxy    dyz    dz2    dxz  x2-y2    tot
    1  0.000  0.047  0.250  0.085  0.000  0.000  0.000  0.000  0.000  0.382
    2  0.000  0.047  0.250  0.085  0.000  0.000  0.000  0.000  0.000  0.382
tot    0.000  0.094  0.499  0.170  0.000  0.000  0.000  0.000  0.000  0.764
 
band     3 # energy    9.29783160 # occ.  2.00000000
 
ion      s     py     pz     px    dxy    dyz    dz2    dxz  x2-y2    tot
    1  0.000  0.236  0.107  0.039  0.000  0.000  0.000  0.000  0.000  0.382
    2  0.000  0.236  0.107  0.039  0.000  0.000  0.000  0.000  0.000  0.382
tot    0.000  0.473  0.213  0.078  0.000  0.000  0.000  0.000  0.000  0.764
 
band     4 # energy    9.29783307 # occ.  2.00000000
 
ion      s     py     pz     px    dxy    dyz    dz2    dxz  x2-y2    tot
    1  0.000  0.098  0.026  0.258  0.000  0.000  0.000  0.000  0.000  0.382
    2  0.000  0.098  0.026  0.258  0.000  0.000  0.000  0.000  0.000  0.382
tot    0.000  0.197  0.051  0.516  0.000  0.000  0.000  0.000  0.000  0.764
 
band     5 # energy   15.35663795 # occ.  0.00000000
 
ion      s     py     pz     px    dxy    dyz    dz2    dxz  x2-y2    tot
    1  0.000  0.024  0.201  0.076  0.000  0.000  0.000  0.000  0.000  0.301
    2  0.000  0.024  0.201  0.076  0.000  0.000  0.000  0.000  0.000  0.301
tot    0.000  0.047  0.403  0.153  0.000  0.000  0.000  0.000  0.000  0.603
 
band     6 # energy   15.35665647 # occ.  0.00000000
 
ion      s     py     pz     px    dxy    dyz    dz2    dxz  x2-y2    tot
    1  0.000  0.047  0.044  0.211  0.000  0.000  0.000  0.000  0.000  0.301
    2  0.000  0.047  0.044  0.211  0.000  0.000  0.000  0.000  0.000  0.301
tot    0.000  0.094  0.087  0.421  0.000  0.000  0.000  0.000  0.000  0.603
 
band     7 # energy   15.35666020 # occ.  0.00000000
 
ion      s     py     pz     px    dxy    dyz    dz2    dxz  x2-y2    tot
    1  0.000  0.231  0.056  0.014  0.000  0.000  0.000  0.000  0.000  0.301
    2  0.000  0.231  0.056  0.014  0.000  0.000  0.000  0.000  0.000  0.301
tot    0.000  0.462  0.113  0.028  0.000  0.000  0.000  0.000  0.000  0.603
 
band     8 # energy   23.13061844 # occ.  0.00000000
 
ion      s     py     pz     px    dxy    dyz    dz2    dxz  x2-y2    tot
    1  0.394  0.000  0.000  0.000  0.000  0.000  0.000  0.000  0.000  0.394
    2  0.394  0.000  0.000  0.000  0.000  0.000  0.000  0.000  0.000  0.394
tot    0.789  0.000  0.000  0.000  0.000  0.000  0.000  0.000  0.000  0.789
 

 k-point     2 :    0.50000000 0.00000000 0.00000000     weight = 0.50000000

band     1 # energy   -6.38296618 # occ.  2.00000000
 
ion      s     py     pz     px    dxy    dyz    dz2    dxz  x2-y2    tot
    1  0.298  0.004  0.000  0.029  0.000  0.000  0.000  0.000  0.000  0.331
    2  0.298  0.004  0.000  0.029  0.000  0.000  0.000  0.000  0.000  0.331
tot    0.597  0.007  0.000  0.058  0.000  0.000  0.000  0.000  0.000  0.662
 
band     2 # energy   -3.72484724 # occ.  2.00000000
 
ion      s     py     pz     px    dxy    dyz    dz2    dxz  x2-y2    tot
    1  0.084  0.022  0.000  0.173  0.000  0.000  0.000  0.000  0.000  0.279
    2  0.084  0.022  0.000  0.173  0.000  0.000  0.000  0.000  0.000  0.279
tot    0.169  0.043  0.000  0.347  0.000  0.000  0.000  0.000  0.000  0.559
 
band     3 # energy    6.50201922 # occ.  2.00000000
 
ion      s     py     pz     px    dxy    dyz    dz2    dxz  x2-y2    tot
    1  0.000  0.092  0.265  0.011  0.000  0.000  0.000  0.000  0.000  0.369
    2  0.000  0.092  0.265  0.011  0.000  0.000  0.000  0.000  0.000  0.369
tot    0.000  0.184  0.531  0.023  0.000  0.000  0.000  0.000  0.000  0.737
 
band     4 # energy    6.50204161 # occ.  2.00000000
 
ion      s     py     pz     px    dxy    dyz    dz2    dxz  x2-y2    tot
    1  0.000  0.236  0.103  0.029  0.000  0.000  0.000  0.000  0.000  0.369
    2  0.000  0.236  0.103  0.029  0.000  0.000  0.000  0.000  0.000  0.369
tot    0.000  0.472  0.207  0.059  0.000  0.000  0.000  0.000  0.000  0.737
 
band     5 # energy   18.31734166 # occ.  0.00000000
 
ion      s     py     pz     px    dxy    dyz    dz2    dxz  x2-y2    tot
    1  0.000  0.056  0.205  0.007  0.000  0.000  0.000  0.000  0.000  0.268
    2  0.000  0.056  0.205  0.007  0.000  0.000  0.000  0.000  0.000  0.268
tot    0.000  0.113  0.409  0.014  0.000  0.000  0.000  0.000  0.000  0.536
 
band     6 # energy   18.31736563 # occ.  0.00000000
 
ion      s     py     pz     px    dxy    dyz    dz2    dxz  x2-y2    tot
    1  0.000  0.182  0.063  0.023  0.000  0.000  0.000  0.000  0.000  0.268
    2  0.000  0.182  0.063  0.023  0.000  0.000  0.000  0.000  0.000  0.268
tot    0.000  0.364  0.127  0.045  0.000  0.000  0.000  0.000  0.000  0.536
 
band     7 # energy   18.62985970 # occ.  0.00000000
 
ion      s     py     pz     px    dxy    dyz    dz2    dxz  x2-y2    tot
    1  0.278  0.003  0.000  0.021  0.000  0.000  0.000  0.000  0.000  0.302
    2  0.278  0.003  0.000  0.021  0.000  0.000  0.000  0.000  0.000  0.302
tot    0.556  0.005  0.000  0.042  0.000  0.000  0.000  0.000  0.000  0.603
 
band     8 # energy   26.49671522 # occ.  0.00000000
 
ion      s     py     pz     px    dxy    dyz    dz2    dxz  x2-y2    tot
    1  0.002  0.030  0.000  0.238  0.000  0.000  0.000  0.000  0.000  0.269
    2  0.002  0.030  0.000  0.238  0.000  0.000  0.000  0.000  0.000  0.269
tot    0.003  0.059  0.000  0.476  0.000  0.000  0.000  0.000  0.000  0.539
 

 k-point     3 :    0.50000000 0.50000000 0.00000000     weight = 0.37500000

band     1 # energy   -3.37502842 # occ.  2.00000000
 
ion      s     py     pz     px    dxy    dyz    dz2    dxz  x2-y2    tot
    1  0.214  0.038  0.000  0.076  0.000  0.000  0.000  0.000  0.000  0.327
    2  0.214  0.038  0.000  0.076  0.000  0.000  0.000  0.000  0.000  0.327
tot    0.427  0.076  0.000  0.151  0.000  0.000  0.000  0.000  0.000  0.654
 
band     2 # energy   -3.37502797 # occ.  2.00000000
 
ion      s     py     pz     px    dxy    dyz    dz2    dxz  x2-y2    tot
    1  0.214  0.038  0.000  0.076  0.000  0.000  0.000  0.000  0.000  0.327
    2  0.214  0.038  0.000  0.076  0.000  0.000  0.000  0.000  0.000  0.327
tot    0.427  0.076  0.000  0.151  0.000  0.000  0.000  0.000  0.000  0.654
 
band     3 # energy    3.14080966 # occ.  2.00000000
 
ion      s     py     pz     px    dxy    dyz    dz2    dxz  x2-y2    tot
    1  0.000  0.000  0.338  0.000  0.000  0.000  0.000  0.000  0.000  0.338
    2  0.000  0.000  0.338  0.000  0.000  0.000  0.000  0.000  0.000  0.338
tot    0.000  0.000  0.675  0.000  0.000  0.000  0.000  0.000  0.000  0.675
 
band     4 # energy    3.14082298 # occ.  2.00000000
 
ion      s     py     pz     px    dxy    dyz    dz2    dxz  x2-y2    tot
    1  0.000  0.225  0.000  0.113  0.000  0.000  0.000  0.000  0.000  0.338
    2  0.000  0.225  0.000  0.113  0.000  0.000  0.000  0.000  0.000  0.338
tot    0.000  0.450  0.000  0.225  0.000  0.000  0.000  0.000  0.000  0.675
 
band     5 # energy   14.95344911 # occ.  0.00000000
 
ion      s     py     pz     px    dxy    dyz    dz2    dxz  x2-y2    tot
    1  0.110  0.021  0.000  0.041  0.000  0.000  0.000  0.000  0.000  0.172
    2  0.110  0.021  0.000  0.041  0.000  0.000  0.000  0.000  0.000  0.172
tot    0.220  0.041  0.000  0.082  0.000  0.000  0.000  0.000  0.000  0.343
 
band     6 # energy   14.95346069 # occ.  0.00000000
 
ion      s     py     pz     px    dxy    dyz    dz2    dxz  x2-y2    tot
    1  0.110  0.021  0.000  0.041  0.000  0.000  0.000  0.000  0.000  0.172
    2  0.110  0.021  0.000  0.041  0.000  0.000  0.000  0.000  0.000  0.172
tot    0.220  0.041  0.000  0.082  0.000  0.000  0.000  0.000  0.000  0.343
 
band     7 # energy   27.04846480 # occ.  0.00000000
 
ion      s     py     pz     px    dxy    dyz    dz2    dxz  x2-y2    tot
    1  0.000  0.000  0.426  0.000  0.000  0.000  0.000  0.000  0.000  0.426
    2  0.000  0.000  0.426  0.000  0.000  0.000  0.000  0.000  0.000  0.426
tot    0.000  0.000  0.853  0.000  0.000  0.000  0.000  0.000  0.000  0.853
 
band     8 # energy   27.04849202 # occ.  0.00000000
 
ion      s     py     pz     px    dxy    dyz    dz2    dxz  x2-y2    tot
    1  0.000  0.284  0.000  0.142  0.000  0.000  0.000  0.000  0.000  0.426
    2  0.000  0.284  0.000  0.142  0.000  0.000  0.000  0.000  0.000  0.426
tot    0.000  0.569  0.000  0.284  0.000  0.000  0.000  0.000  0.000  0.853
 
