<?xml version="1.0" encoding="ISO-8859-1"?>
<modeling>
 <generator>
  <i name="program" type="string">vasp </i>
  <i name="version" type="string">5.4.4.18Apr17-6-g9f103f2a35  </i>
  <i name="subversion" type="string">(build Jan 25 2021 16:16:55) complex            parallel </i>
  <i name="platform" type="string">LinuxIFC </i>
  <i name="date" type="string">2026 04 30 </i>
  <i name="time" type="string">12:29:53 </i>
 </generator>
 <incar>
  <i type="string" name="SYSTEM"> r-GeO2 ENCUT convergence test</i>
  <i type="int" name="ISTART">     0</i>
  <i type="string" name="PREC">accurate</i>
  <i type="string" name="ALGO"> Normal</i>
  <i type="int" name="ICHARG">     2</i>
  <i type="int" name="IBRION">    -1</i>
  <i name="EDIFF">      0.00010000</i>
  <i type="int" name="NSW">     0</i>
  <i name="ENCUT">    500.00000000</i>
  <i type="logical" name="LREAL"> F  </i>
  <i type="int" name="ISMEAR">     0</i>
  <i name="SIGMA">      0.05000000</i>
  <i type="logical" name="LWAVE"> F  </i>
  <i type="logical" name="LCHARG"> F  </i>
  <i type="int" name="LORBIT">    11</i>
  <i type="logical" name="LASPH"> T  </i>
  <v type="int" name="KPOINT_BSE">    -1     0     0     0</v>
  <i type="logical" name="LASPH"> T  </i>
 </incar>
 <structure name="primitive_cell" >
  <crystal>
   <varray name="basis" >
    <v>       2.18050236       0.00000000       1.25891346 </v>
    <v>       0.72683412       2.05579703       1.25891346 </v>
    <v>       0.00000000       0.00000000       2.51782692 </v>
   </varray>
   <i name="volume">     11.28658789 </i>
   <varray name="rec_basis" >
    <v>       0.45860991      -0.16214311       0.00000000 </v>
    <v>       0.00000000       0.48642934       0.00000000 </v>
    <v>      -0.22930496      -0.16214311       0.39716789 </v>
   </varray>
  </crystal>
  <varray name="positions" >
   <v>      -0.12500000      -0.12500000      -0.12500000 </v>
   <v>       0.12500000       0.12500000       0.12500000 </v>
  </varray>
 </structure>
 <varray name="primitive_index" >
  <v type="int" >        1 </v>
  <v type="int" >        2 </v>
 </varray>
 <kpoints>
  <generation param="Gamma">
   <v type="int" name="divisions">      15       15       15 </v>
   <v name="usershift">      0.00000000       0.00000000       0.00000000 </v>
   <v name="genvec1">      0.06666667      -0.00000000       0.00000000 </v>
   <v name="genvec2">      0.00000000       0.06666667       0.00000000 </v>
   <v name="genvec3">      0.00000000       0.00000000       0.06666667 </v>
   <v name="shift">      0.00000000       0.00000000       0.00000000 </v>
  </generation>
  <varray name="kpointlist" >
   <v>       0.00000000       0.00000000       0.00000000 </v>
   <v>       0.06666667      -0.00000000       0.00000000 </v>
   <v>       0.13333333      -0.00000000       0.00000000 </v>
   <v>       0.20000000      -0.00000000       0.00000000 </v>
   <v>       0.26666667       0.00000000       0.00000000 </v>
   <v>       0.33333333      -0.00000000       0.00000000 </v>
   <v>       0.40000000      -0.00000000       0.00000000 </v>
   <v>       0.46666667      -0.00000000       0.00000000 </v>
   <v>       0.06666667       0.06666667       0.00000000 </v>
   <v>       0.13333333       0.06666667       0.00000000 </v>
   <v>       0.20000000       0.06666667       0.00000000 </v>
   <v>       0.26666667       0.06666667       0.00000000 </v>
   <v>       0.33333333       0.06666667       0.00000000 </v>
   <v>       0.40000000       0.06666667       0.00000000 </v>
   <v>       0.46666667       0.06666667       0.00000000 </v>
   <v>      -0.46666667       0.06666667       0.00000000 </v>
   <v>      -0.40000000       0.06666667       0.00000000 </v>
   <v>      -0.33333333       0.06666667       0.00000000 </v>
   <v>      -0.26666667       0.06666667       0.00000000 </v>
   <v>      -0.20000000       0.06666667       0.00000000 </v>
   <v>      -0.13333333       0.06666667       0.00000000 </v>
   <v>      -0.06666667       0.06666667       0.00000000 </v>
   <v>       0.13333333       0.13333333       0.00000000 </v>
   <v>       0.20000000       0.13333333       0.00000000 </v>
   <v>       0.26666667       0.13333333       0.00000000 </v>
   <v>       0.33333333       0.13333333       0.00000000 </v>
   <v>       0.40000000       0.13333333       0.00000000 </v>
   <v>       0.46666667       0.13333333       0.00000000 </v>
   <v>      -0.46666667       0.13333333       0.00000000 </v>
   <v>      -0.40000000       0.13333333       0.00000000 </v>
   <v>      -0.33333333       0.13333333       0.00000000 </v>
   <v>      -0.26666667       0.13333333       0.00000000 </v>
   <v>      -0.20000000       0.13333333       0.00000000 </v>
   <v>      -0.13333333       0.13333333       0.00000000 </v>
   <v>       0.20000000       0.20000000       0.00000000 </v>
   <v>       0.26666667       0.20000000       0.00000000 </v>
   <v>       0.33333333       0.20000000       0.00000000 </v>
   <v>       0.40000000       0.20000000       0.00000000 </v>
   <v>       0.46666667       0.20000000       0.00000000 </v>
   <v>      -0.46666667       0.20000000       0.00000000 </v>
   <v>      -0.40000000       0.20000000       0.00000000 </v>
   <v>      -0.33333333       0.20000000       0.00000000 </v>
   <v>      -0.26666667       0.20000000       0.00000000 </v>
   <v>      -0.20000000       0.20000000       0.00000000 </v>
   <v>       0.26666667       0.26666667       0.00000000 </v>
   <v>       0.33333333       0.26666667       0.00000000 </v>
   <v>       0.40000000       0.26666667       0.00000000 </v>
   <v>       0.46666667       0.26666667       0.00000000 </v>
   <v>      -0.46666667       0.26666667       0.00000000 </v>
   <v>      -0.40000000       0.26666667       0.00000000 </v>
   <v>      -0.33333333       0.26666667       0.00000000 </v>
   <v>      -0.26666667       0.26666667       0.00000000 </v>
   <v>       0.33333333       0.33333333       0.00000000 </v>
   <v>       0.40000000       0.33333333       0.00000000 </v>
   <v>       0.46666667       0.33333333       0.00000000 </v>
   <v>      -0.46666667       0.33333333       0.00000000 </v>
   <v>      -0.40000000       0.33333333       0.00000000 </v>
   <v>      -0.33333333       0.33333333       0.00000000 </v>
   <v>       0.40000000       0.40000000       0.00000000 </v>
   <v>       0.46666667       0.40000000       0.00000000 </v>
   <v>      -0.46666667       0.40000000       0.00000000 </v>
   <v>      -0.40000000       0.40000000       0.00000000 </v>
   <v>       0.46666667       0.46666667       0.00000000 </v>
   <v>      -0.46666667       0.46666667       0.00000000 </v>
   <v>       0.20000000       0.13333333       0.06666667 </v>
   <v>       0.26666667       0.13333333       0.06666667 </v>
   <v>       0.33333333       0.13333333       0.06666667 </v>
   <v>       0.40000000       0.13333333       0.06666667 </v>
   <v>       0.46666667       0.13333333       0.06666667 </v>
   <v>      -0.46666667       0.13333333       0.06666667 </v>
   <v>       0.26666667       0.20000000       0.06666667 </v>
   <v>       0.33333333       0.20000000       0.06666667 </v>
   <v>       0.40000000       0.20000000       0.06666667 </v>
   <v>       0.46666667       0.20000000       0.06666667 </v>
   <v>      -0.46666667       0.20000000       0.06666667 </v>
   <v>      -0.40000000       0.20000000       0.06666667 </v>
   <v>      -0.33333333       0.20000000       0.06666667 </v>
   <v>      -0.26666667       0.20000000       0.06666667 </v>
   <v>      -0.20000000       0.20000000       0.06666667 </v>
   <v>      -0.13333333       0.20000000       0.06666667 </v>
   <v>       0.33333333       0.26666667       0.06666667 </v>
   <v>       0.40000000       0.26666667       0.06666667 </v>
   <v>       0.46666667       0.26666667       0.06666667 </v>
   <v>      -0.46666667       0.26666667       0.06666667 </v>
   <v>      -0.40000000       0.26666667       0.06666667 </v>
   <v>      -0.33333333       0.26666667       0.06666667 </v>
   <v>      -0.26666667       0.26666667       0.06666667 </v>
   <v>      -0.20000000       0.26666667       0.06666667 </v>
   <v>       0.40000000       0.33333333       0.06666667 </v>
   <v>       0.46666667       0.33333333       0.06666667 </v>
   <v>      -0.46666667       0.33333333       0.06666667 </v>
   <v>      -0.40000000       0.33333333       0.06666667 </v>
   <v>      -0.33333333       0.33333333       0.06666667 </v>
   <v>      -0.26666667       0.33333333       0.06666667 </v>
   <v>       0.46666667       0.40000000       0.06666667 </v>
   <v>      -0.46666667       0.40000000       0.06666667 </v>
   <v>      -0.40000000       0.40000000       0.06666667 </v>
   <v>      -0.33333333       0.40000000       0.06666667 </v>
   <v>      -0.46666667       0.46666667       0.06666667 </v>
   <v>      -0.40000000       0.46666667       0.06666667 </v>
   <v>       0.40000000       0.26666667       0.13333333 </v>
   <v>       0.46666667       0.26666667       0.13333333 </v>
   <v>      -0.46666667       0.26666667       0.13333333 </v>
   <v>      -0.40000000       0.26666667       0.13333333 </v>
   <v>       0.46666667       0.33333333       0.13333333 </v>
   <v>      -0.46666667       0.33333333       0.13333333 </v>
   <v>      -0.40000000       0.33333333       0.13333333 </v>
   <v>      -0.33333333       0.33333333       0.13333333 </v>
   <v>      -0.26666667       0.33333333       0.13333333 </v>
   <v>      -0.20000000       0.33333333       0.13333333 </v>
   <v>      -0.46666667       0.40000000       0.13333333 </v>
   <v>      -0.40000000       0.40000000       0.13333333 </v>
   <v>      -0.33333333       0.40000000       0.13333333 </v>
   <v>      -0.26666667       0.40000000       0.13333333 </v>
   <v>      -0.40000000       0.46666667       0.13333333 </v>
   <v>      -0.33333333       0.46666667       0.13333333 </v>
   <v>      -0.40000000       0.40000000       0.20000000 </v>
   <v>      -0.33333333       0.40000000       0.20000000 </v>
   <v>      -0.33333333       0.46666667       0.20000000 </v>
   <v>      -0.26666667       0.46666667       0.20000000 </v>
  </varray>
  <varray name="weights" >
   <v>       0.00029630 </v>
   <v>       0.00237037 </v>
   <v>       0.00237037 </v>
   <v>       0.00237037 </v>
   <v>       0.00237037 </v>
   <v>       0.00237037 </v>
   <v>       0.00237037 </v>
   <v>       0.00237037 </v>
   <v>       0.00177778 </v>
   <v>       0.00711111 </v>
   <v>       0.00711111 </v>
   <v>       0.00711111 </v>
   <v>       0.00711111 </v>
   <v>       0.00711111 </v>
   <v>       0.00711111 </v>
   <v>       0.00711111 </v>
   <v>       0.00711111 </v>
   <v>       0.00711111 </v>
   <v>       0.00711111 </v>
   <v>       0.00711111 </v>
   <v>       0.00711111 </v>
   <v>       0.00355556 </v>
   <v>       0.00177778 </v>
   <v>       0.00711111 </v>
   <v>       0.00711111 </v>
   <v>       0.00711111 </v>
   <v>       0.00711111 </v>
   <v>       0.00711111 </v>
   <v>       0.00711111 </v>
   <v>       0.00711111 </v>
   <v>       0.00711111 </v>
   <v>       0.00711111 </v>
   <v>       0.00711111 </v>
   <v>       0.00355556 </v>
   <v>       0.00177778 </v>
   <v>       0.00711111 </v>
   <v>       0.00711111 </v>
   <v>       0.00711111 </v>
   <v>       0.00711111 </v>
   <v>       0.00711111 </v>
   <v>       0.00711111 </v>
   <v>       0.00711111 </v>
   <v>       0.00711111 </v>
   <v>       0.00355556 </v>
   <v>       0.00177778 </v>
   <v>       0.00711111 </v>
   <v>       0.00711111 </v>
   <v>       0.00711111 </v>
   <v>       0.00711111 </v>
   <v>       0.00711111 </v>
   <v>       0.00711111 </v>
   <v>       0.00355556 </v>
   <v>       0.00177778 </v>
   <v>       0.00711111 </v>
   <v>       0.00711111 </v>
   <v>       0.00711111 </v>
   <v>       0.00711111 </v>
   <v>       0.00355556 </v>
   <v>       0.00177778 </v>
   <v>       0.00711111 </v>
   <v>       0.00711111 </v>
   <v>       0.00355556 </v>
   <v>       0.00177778 </v>
   <v>       0.00355556 </v>
   <v>       0.00711111 </v>
   <v>       0.01422222 </v>
   <v>       0.01422222 </v>
   <v>       0.01422222 </v>
   <v>       0.01422222 </v>
   <v>       0.01422222 </v>
   <v>       0.00711111 </v>
   <v>       0.01422222 </v>
   <v>       0.01422222 </v>
   <v>       0.01422222 </v>
   <v>       0.01422222 </v>
   <v>       0.01422222 </v>
   <v>       0.01422222 </v>
   <v>       0.01422222 </v>
   <v>       0.01422222 </v>
   <v>       0.00711111 </v>
   <v>       0.00711111 </v>
   <v>       0.01422222 </v>
   <v>       0.01422222 </v>
   <v>       0.01422222 </v>
   <v>       0.01422222 </v>
   <v>       0.01422222 </v>
   <v>       0.01422222 </v>
   <v>       0.00711111 </v>
   <v>       0.00711111 </v>
   <v>       0.01422222 </v>
   <v>       0.01422222 </v>
   <v>       0.01422222 </v>
   <v>       0.01422222 </v>
   <v>       0.00711111 </v>
   <v>       0.00711111 </v>
   <v>       0.01422222 </v>
   <v>       0.01422222 </v>
   <v>       0.00711111 </v>
   <v>       0.00711111 </v>
   <v>       0.00711111 </v>
   <v>       0.00711111 </v>
   <v>       0.01422222 </v>
   <v>       0.01422222 </v>
   <v>       0.01422222 </v>
   <v>       0.00711111 </v>
   <v>       0.01422222 </v>
   <v>       0.01422222 </v>
   <v>       0.01422222 </v>
   <v>       0.01422222 </v>
   <v>       0.00711111 </v>
   <v>       0.00711111 </v>
   <v>       0.01422222 </v>
   <v>       0.01422222 </v>
   <v>       0.00711111 </v>
   <v>       0.00711111 </v>
   <v>       0.00711111 </v>
   <v>       0.00711111 </v>
   <v>       0.01422222 </v>
   <v>       0.00711111 </v>
   <v>       0.00711111 </v>
  </varray>
 </kpoints>
 <parameters>
  <separator name="general" >
   <i type="string" name="SYSTEM">r-GeO2 ENCUT convergence test</i>
   <i type="logical" name="LCOMPAT"> F  </i>
  </separator>
  <separator name="electronic" >
   <i type="string" name="PREC">accura</i>
   <i name="ENMAX">    500.00000000</i>
   <i name="ENAUG">    644.87300000</i>
   <i name="EDIFF">      0.00010000</i>
   <i type="int" name="IALGO">    38</i>
   <i type="int" name="IWAVPR">    10</i>
   <i type="int" name="NBANDS">     8</i>
   <i name="NELECT">      8.00000000</i>
   <i type="int" name="TURBO">     0</i>
   <i type="int" name="IRESTART">     0</i>
   <i type="int" name="NREBOOT">     0</i>
   <i type="int" name="NMIN">     0</i>
   <i name="EREF">      0.00000000</i>
   <separator name="electronic smearing" >
    <i type="int" name="ISMEAR">     0</i>
    <i name="SIGMA">      0.05000000</i>
    <i name="KSPACING">      0.50000000</i>
    <i type="logical" name="KGAMMA"> T  </i>
   </separator>
   <separator name="electronic projectors" >
    <i type="logical" name="LREAL"> F  </i>
    <v name="ROPT">      0.00000000</v>
    <i type="int" name="LMAXPAW">  -100</i>
    <i type="int" name="LMAXMIX">     2</i>
    <i type="logical" name="NLSPLINE"> F  </i>
   </separator>
   <separator name="electronic startup" >
    <i type="int" name="ISTART">     0</i>
    <i type="int" name="ICHARG">     2</i>
    <i type="int" name="INIWAV">     1</i>
   </separator>
   <separator name="electronic spin" >
    <i type="int" name="ISPIN">     1</i>
    <i type="logical" name="LNONCOLLINEAR"> F  </i>
    <v name="MAGMOM">      1.00000000      1.00000000</v>
    <i name="NUPDOWN">     -1.00000000</i>
    <i type="logical" name="LSORBIT"> F  </i>
    <v name="SAXIS">      0.00000000      0.00000000      1.00000000</v>
    <i type="logical" name="LSPIRAL"> F  </i>
    <v name="QSPIRAL">      0.00000000      0.00000000      0.00000000</v>
    <i type="logical" name="LZEROZ"> F  </i>
   </separator>
   <separator name="electronic exchange-correlation" >
    <i type="logical" name="LASPH"> T  </i>
    <i type="logical" name="LMETAGGA"> F  </i>
   </separator>
   <separator name="electronic convergence" >
    <i type="int" name="NELM">    60</i>
    <i type="int" name="NELMDL">    -5</i>
    <i type="int" name="NELMIN">     2</i>
    <i name="ENINI">    500.00000000</i>
    <separator name="electronic convergence detail" >
     <i type="logical" name="LDIAG"> T  </i>
     <i type="logical" name="LSUBROT"> F  </i>
     <i name="WEIMIN">      0.00000000</i>
     <i name="EBREAK">      0.00000313</i>
     <i name="DEPER">      0.30000000</i>
     <i type="int" name="NRMM">     4</i>
     <i name="TIME">      0.40000000</i>
    </separator>
   </separator>
   <separator name="electronic mixer" >
    <i name="AMIX">      0.40000000</i>
    <i name="BMIX">      1.00000000</i>
    <i name="AMIN">      0.10000000</i>
    <i name="AMIX_MAG">      1.60000000</i>
    <i name="BMIX_MAG">      1.00000000</i>
    <separator name="electronic mixer details" >
     <i type="int" name="IMIX">     4</i>
     <i type="logical" name="MIXFIRST"> F  </i>
     <i type="int" name="MAXMIX">   -45</i>
     <i name="WC">    100.00000000</i>
     <i type="int" name="INIMIX">     1</i>
     <i type="int" name="MIXPRE">     1</i>
     <i type="int" name="MREMOVE">     5</i>
    </separator>
   </separator>
   <separator name="electronic dipolcorrection" >
    <i type="logical" name="LDIPOL"> F  </i>
    <i type="logical" name="LMONO"> F  </i>
    <i type="int" name="IDIPOL">     0</i>
    <i name="EPSILON">      1.00000000</i>
    <v name="DIPOL">   -100.00000000   -100.00000000   -100.00000000</v>
    <i name="EFIELD">      0.00000000</i>
   </separator>
  </separator>
  <separator name="grids" >
   <i type="int" name="NGX">    18</i>
   <i type="int" name="NGY">    18</i>
   <i type="int" name="NGZ">    18</i>
   <i type="int" name="NGXF">    36</i>
   <i type="int" name="NGYF">    36</i>
   <i type="int" name="NGZF">    36</i>
   <i type="logical" name="ADDGRID"> F  </i>
  </separator>
  <separator name="ionic" >
   <i type="int" name="NSW">     0</i>
   <i type="int" name="IBRION">    -1</i>
   <i type="int" name="MDALGO">     0</i>
   <i type="int" name="ISIF">     2</i>
   <i name="PSTRESS">      0.00000000</i>
   <i name="EDIFFG">      0.00100000</i>
   <i type="int" name="NFREE">     0</i>
   <i name="POTIM">      0.50000000</i>
   <i name="SMASS">     -3.00000000</i>
   <i name="SCALEE">      1.00000000</i>
  </separator>
  <separator name="ionic md" >
   <i name="TEBEG">      0.00010000</i>
   <i name="TEEND">      0.00010000</i>
   <i type="int" name="NBLOCK">     1</i>
   <i type="int" name="KBLOCK">     1</i>
   <i type="int" name="NPACO">   256</i>
   <i name="APACO">     16.00000000</i>
  </separator>
  <separator name="symmetry" >
   <i type="int" name="ISYM">     2</i>
   <i name="SYMPREC">      0.00001000</i>
  </separator>
  <separator name="dos" >
   <i type="int" name="LORBIT">    11</i>
   <v name="RWIGS">     -1.00000000</v>
   <i type="int" name="NEDOS">   301</i>
   <i name="EMIN">     10.00000000</i>
   <i name="EMAX">    -10.00000000</i>
   <i name="EFERMI">      0.00000000</i>
  </separator>
  <separator name="writing" >
   <i type="int" name="NWRITE">     2</i>
   <i type="logical" name="LWAVE"> F  </i>
   <i type="logical" name="LDOWNSAMPLE"> F  </i>
   <i type="logical" name="LCHARG"> F  </i>
   <i type="logical" name="LPARD"> F  </i>
   <i type="logical" name="LVTOT"> F  </i>
   <i type="logical" name="LVHAR"> F  </i>
   <i type="logical" name="LELF"> F  </i>
   <i type="logical" name="LOPTICS"> F  </i>
   <v name="STM">      0.00000000      0.00000000      0.00000000      0.00000000      0.00000000      0.00000000      0.00000000</v>
  </separator>
  <separator name="performance" >
   <i type="int" name="NPAR">     2</i>
   <i type="int" name="NSIM">     4</i>
   <i type="int" name="NBLK">    -1</i>
   <i type="logical" name="LPLANE"> T  </i>
   <i type="logical" name="LSCALAPACK"> T  </i>
   <i type="logical" name="LSCAAWARE"> F  </i>
   <i type="logical" name="LSCALU"> F  </i>
   <i type="logical" name="LASYNC"> F  </i>
   <i type="logical" name="LORBITALREAL"> F  </i>
  </separator>
  <separator name="miscellaneous" >
   <i type="int" name="IDIOT">     3</i>
   <i type="int" name="ISPECIAL">     0</i>
   <i type="logical" name="LMUSIC"> F  </i>
   <v name="POMASS">     12.01100000</v>
   <v name="DARWINR">      0.00000000</v>
   <v name="DARWINV">      1.00000000</v>
   <i type="logical" name="LCORR"> T  </i>
  </separator>
  <i type="logical" name="GGA_COMPAT"> T  </i>
  <i type="logical" name="LBERRY"> F  </i>
  <i type="int" name="ICORELEVEL">     0</i>
  <i type="logical" name="LDAU"> F  </i>
  <i type="int" name="I_CONSTRAINED_M">     0</i>
  <separator name="electronic exchange-correlation" >
   <i type="string" name="GGA">--</i>
   <i type="int" name="VOSKOWN">     0</i>
   <i type="logical" name="LHFCALC"> F  </i>
   <i type="string" name="PRECFOCK"></i>
   <i type="logical" name="LSYMGRAD"> F  </i>
   <i type="logical" name="LHFONE"> F  </i>
   <i type="logical" name="LRHFCALC"> F  </i>
   <i type="logical" name="LTHOMAS"> F  </i>
   <i type="logical" name="LMODELHF"> F  </i>
   <i name="ENCUT4O">     -1.00000000</i>
   <i type="int" name="EXXOEP">     0</i>
   <i type="int" name="FOURORBIT">     0</i>
   <i name="AEXX">      0.00000000</i>
   <i name="HFALPHA">      0.00000000</i>
   <i name="MCALPHA">      0.00000000</i>
   <i name="ALDAX">      1.00000000</i>
   <i name="AGGAX">      1.00000000</i>
   <i name="ALDAC">      1.00000000</i>
   <i name="AGGAC">      1.00000000</i>
   <i type="int" name="NKREDX">     1</i>
   <i type="int" name="NKREDY">     1</i>
   <i type="int" name="NKREDZ">     1</i>
   <i type="logical" name="SHIFTRED"> F  </i>
   <i type="logical" name="ODDONLY"> F  </i>
   <i type="logical" name="EVENONLY"> F  </i>
   <i type="int" name="LMAXFOCK">     0</i>
   <i type="int" name="NMAXFOCKAE">     0</i>
   <i type="logical" name="LFOCKAEDFT"> F  </i>
   <i name="HFSCREEN">      0.00000000</i>
   <i name="HFSCREENC">      0.00000000</i>
   <i type="int" name="NBANDSGWLOW">     0</i>
  </separator>
  <separator name="vdW DFT" >
   <i type="logical" name="LUSE_VDW"> F  </i>
   <i name="Zab_VDW">     -0.84910000</i>
   <i name="PARAM1">      0.12340000</i>
   <i name="PARAM2">      1.00000000</i>
   <i name="PARAM3">      0.00000000</i>
  </separator>
  <separator name="model GW" >
   <i type="int" name="MODEL_GW">     0</i>
   <i name="MODEL_EPS0">      3.38597637</i>
   <i name="MODEL_ALPHA">      1.00000000</i>
  </separator>
  <separator name="linear response parameters" >
   <i type="logical" name="LEPSILON"> F  </i>
   <i type="logical" name="LRPA"> F  </i>
   <i type="logical" name="LNABLA"> F  </i>
   <i type="logical" name="LVEL"> F  </i>
   <i type="int" name="KINTER">     0</i>
   <i name="CSHIFT">      0.10000000</i>
   <i name="OMEGAMAX">     -1.00000000</i>
   <i name="DEG_THRESHOLD">      0.00200000</i>
   <i name="RTIME">     -0.10000000</i>
   <i name="WPLASMAI">      0.00000000</i>
   <v name="DFIELD">      0.00000000      0.00000000      0.00000000</v>
   <v name="WPLASMA">      0.00000000      0.00000000      0.00000000      0.00000000      0.00000000      0.00000000      0.00000000      0.00000000      0.00000000</v>
  </separator>
  <separator name="orbital magnetization" >
   <i type="logical" name="NUCIND"> F  </i>
   <v name="MAGPOS">      0.00000000      0.00000000      0.00000000</v>
   <i type="logical" name="LNICSALL"> T  </i>
   <i type="logical" name="ORBITALMAG"> F  </i>
   <i type="logical" name="LMAGBLOCH"> F  </i>
   <i type="logical" name="LCHIMAG"> F  </i>
   <i type="logical" name="LGAUGE"> T  </i>
   <i type="int" name="MAGATOM">     0</i>
   <v name="MAGDIPOL">      0.00000000      0.00000000      0.00000000</v>
   <v name="AVECCONST">      0.00000000      0.00000000      0.00000000</v>
  </separator>
  <separator name="response functions" >
   <i type="logical" name="LADDER"> F  </i>
   <i type="logical" name="LRPAFORCE"> F  </i>
   <i type="logical" name="LFXC"> F  </i>
   <i type="logical" name="LHARTREE"> T  </i>
   <i type="int" name="IBSE">     0</i>
   <v type="int" name="KPOINT">    -1     0     0     0</v>
   <i type="logical" name="LTCTE"> F  </i>
   <i type="logical" name="LTETE"> F  </i>
   <i type="logical" name="LTRIPLET"> F  </i>
   <i type="logical" name="LFXCEPS"> F  </i>
   <i type="logical" name="LFXHEG"> F  </i>
   <i type="int" name="NATURALO">     2</i>
   <i type="logical" name="L2ORDER"> F  </i>
   <i type="logical" name="LMP2LT"> F  </i>
   <i type="logical" name="LUSEW"> F  </i>
   <i name="ENCUTGW">     -2.00000000</i>
   <i name="ENCUTGWSOFT">     -2.00000000</i>
   <i name="ENCUTLF">     -1.00000000</i>
   <i type="int" name="LMAXMP2">    -1</i>
   <i name="SCISSOR">      0.00000000</i>
   <i type="int" name="NOMEGA">     0</i>
   <i type="int" name="NOMEGAR">     0</i>
   <i type="int" name="NBANDSGW">    -1</i>
   <i type="int" name="NBANDSO">    -1</i>
   <i type="int" name="NBANDSV">    -1</i>
   <i type="int" name="NELM">     1</i>
   <i type="int" name="NELMHF">     1</i>
   <i type="int" name="DIM">     3</i>
   <i type="int" name="ANTIRES">     0</i>
   <i name="OMEGAMAX">    -30.00000000</i>
   <i name="OMEGAMIN">    -30.00000000</i>
   <i name="OMEGATL">   -200.00000000</i>
   <i type="int" name="OMEGAGRID">   140</i>
   <i name="CSHIFT">     -0.10000000</i>
   <i type="logical" name="SELFENERGY"> F  </i>
   <i type="logical" name="LSPECTRAL"> F  </i>
   <i type="logical" name="LSPECTRALGW"> F  </i>
   <i type="logical" name="LSINGLES"> F  </i>
   <i type="logical" name="LFERMIGW"> F  </i>
   <i type="logical" name="ODDONLYGW"> F  </i>
   <i type="logical" name="EVENONLYGW"> F  </i>
   <i type="int" name="NKREDLFX">     1</i>
   <i type="int" name="NKREDLFY">     1</i>
   <i type="int" name="NKREDLFZ">     1</i>
   <i type="int" name="MAXMEM">  2800</i>
   <i type="int" name="TELESCOPE">     0</i>
   <i type="int" name="TAUPAR">     1</i>
   <i type="int" name="OMEGAPAR">    -1</i>
   <i name="LAMBDA">      1.00000000</i>
  </separator>
  <separator name="External order field" >
   <i name="OFIELD_KAPPA">      0.00000000</i>
   <v name="OFIELD_K">      0.00000000      0.00000000      0.00000000</v>
   <i name="OFIELD_Q6_NEAR">      0.00000000</i>
   <i name="OFIELD_Q6_FAR">      0.00000000</i>
   <i name="OFIELD_A">      0.00000000</i>
  </separator>
 </parameters>
 <atominfo>
  <atoms>       2 </atoms>
  <types>       1 </types>
  <array name="atoms" >
   <dimension dim="1">ion</dimension>
   <field type="string">element</field>
   <field type="int">atomtype</field>
   <set>
    <rc><c>C </c><c>   1</c></rc>
    <rc><c>C </c><c>   1</c></rc>
   </set>
  </array>
  <array name="atomtypes" >
   <dimension dim="1">type</dimension>
   <field type="int">atomspertype</field>
   <field type="string">element</field>
   <field>mass</field>
   <field>valence</field>
   <field type="string">pseudopotential</field>
   <set>
    <rc><c>   2</c><c>C </c><c>     12.01100000</c><c>      4.00000000</c><c>  PAW_PBE C 08Apr2002                   </c></rc>
   </set>
  </array>
 </atominfo>
 <structure name="initialpos" >
  <crystal>
   <varray name="basis" >
    <v>       2.18050236       0.00000000       1.25891346 </v>
    <v>       0.72683412       2.05579703       1.25891346 </v>
    <v>       0.00000000       0.00000000       2.51782692 </v>
   </varray>
   <i name="volume">     11.28658789 </i>
   <varray name="rec_basis" >
    <v>       0.45860991      -0.16214311       0.00000000 </v>
    <v>       0.00000000       0.48642934       0.00000000 </v>
    <v>      -0.22930496      -0.16214311       0.39716789 </v>
   </varray>
  </crystal>
  <varray name="positions" >
   <v>       0.87500000       0.87500000       0.87500000 </v>
   <v>       0.12500000       0.12500000       0.12500000 </v>
  </varray>
 </structure>
 <calculation>
  <scstep>
   <time name="dav">    0.18    0.18</time>
   <time name="total">    0.21    0.21</time>
   <energy>
    <i name="alphaZ">     10.95786407 </i>
    <i name="ewald">   -348.55062700 </i>
    <i name="hartreedc">    -17.50286058 </i>
    <i name="XCdc">     27.43730065 </i>
    <i name="pawpsdc">    217.04409276 </i>
    <i name="pawaedc">   -218.18290438 </i>
    <i name="eentropy">     -0.00004768 </i>
    <i name="bandstr">      4.08261192 </i>
    <i name="atom">    294.29684335 </i>
    <i name="e_fr_energy">    -30.41772689 </i>
    <i name="e_wo_entrp">    -30.41767921 </i>
    <i name="e_0_energy">    -30.41770305 </i>
   </energy>
  </scstep>
  <scstep>
   <time name="dav">    0.26    0.26</time>
   <time name="total">    0.26    0.26</time>
   <energy>
    <i name="e_fr_energy">    -44.41855339 </i>
    <i name="e_wo_entrp">    -44.41855339 </i>
    <i name="e_0_energy">    -44.41855339 </i>
   </energy>
  </scstep>
  <scstep>
   <time name="dav">    0.18    0.18</time>
   <time name="total">    0.18    0.18</time>
   <energy>
    <i name="e_fr_energy">    -44.49485643 </i>
    <i name="e_wo_entrp">    -44.49485643 </i>
    <i name="e_0_energy">    -44.49485643 </i>
   </energy>
  </scstep>
  <scstep>
   <time name="dav">    0.22    0.22</time>
   <time name="total">    0.22    0.22</time>
   <energy>
    <i name="e_fr_energy">    -44.49498207 </i>
    <i name="e_wo_entrp">    -44.49498207 </i>
    <i name="e_0_energy">    -44.49498207 </i>
   </energy>
  </scstep>
  <scstep>
   <time name="dav">    0.16    0.16</time>
   <time name="total">    0.18    0.18</time>
   <energy>
    <i name="e_fr_energy">    -44.49498213 </i>
    <i name="e_wo_entrp">    -44.49498213 </i>
    <i name="e_0_energy">    -44.49498213 </i>
   </energy>
  </scstep>
  <scstep>
   <time name="dav">    0.17    0.17</time>
   <time name="total">    0.21    0.21</time>
   <energy>
    <i name="e_fr_energy">    -43.78896916 </i>
    <i name="e_wo_entrp">    -43.78896916 </i>
    <i name="e_0_energy">    -43.78896916 </i>
   </energy>
  </scstep>
  <scstep>
   <time name="dav">    0.19    0.19</time>
   <time name="total">    0.24    0.24</time>
   <energy>
    <i name="e_fr_energy">    -43.54758997 </i>
    <i name="e_wo_entrp">    -43.54758997 </i>
    <i name="e_0_energy">    -43.54758997 </i>
   </energy>
  </scstep>
  <scstep>
   <time name="dav">    0.17    0.17</time>
   <time name="total">    0.22    0.22</time>
   <energy>
    <i name="e_fr_energy">    -43.55051142 </i>
    <i name="e_wo_entrp">    -43.55051142 </i>
    <i name="e_0_energy">    -43.55051142 </i>
   </energy>
  </scstep>
  <scstep>
   <time name="dav">    0.22    0.22</time>
   <time name="total">    0.25    0.25</time>
   <energy>
    <i name="alphaZ">     10.95786407 </i>
    <i name="ewald">   -348.55062700 </i>
    <i name="hartreedc">    -28.70316410 </i>
    <i name="XCdc">     28.46637445 </i>
    <i name="pawpsdc">    837.43943142 </i>
    <i name="pawaedc">   -838.79817250 </i>
    <i name="eentropy">     -0.00000000 </i>
    <i name="bandstr">      1.34090286 </i>
    <i name="atom">    294.29684335 </i>
    <i name="e_fr_energy">    -43.55054746 </i>
    <i name="e_wo_entrp">    -43.55054746 </i>
    <i name="e_0_energy">    -43.55054746 </i>
   </energy>
  </scstep>
  <structure>
   <crystal>
    <varray name="basis" >
     <v>       2.18050236       0.00000000       1.25891346 </v>
     <v>       0.72683412       2.05579703       1.25891346 </v>
     <v>       0.00000000       0.00000000       2.51782692 </v>
    </varray>
    <i name="volume">     11.28658789 </i>
    <varray name="rec_basis" >
     <v>       0.45860991      -0.16214311       0.00000000 </v>
     <v>       0.00000000       0.48642934       0.00000000 </v>
     <v>      -0.22930496      -0.16214311       0.39716789 </v>
    </varray>
   </crystal>
   <varray name="positions" >
    <v>       0.87500000       0.87500000       0.87500000 </v>
    <v>       0.12500000       0.12500000       0.12500000 </v>
   </varray>
  </structure>
  <varray name="forces" >
   <v>       0.00000000       0.00000000       0.00000000 </v>
   <v>      -0.00000000      -0.00000000      -0.00000000 </v>
  </varray>
  <varray name="stress" >
   <v>   -2113.00947573       0.00000000      -0.00000000 </v>
   <v>       0.00000000   -2113.00883807      -0.00000000 </v>
   <v>      -0.00000000      -0.00000000   -2113.00892347 </v>
  </varray>
  <energy>
   <i name="e_fr_energy">    -43.55054746 </i>
   <i name="e_wo_entrp">    -43.55054746 </i>
   <i name="e_0_energy">     -0.00000000 </i>
  </energy>
  <time name="totalsc">    2.08    2.08</time>
  <eigenvalues>
   <array>
    <dimension dim="1">band</dimension>
    <dimension dim="2">kpoint</dimension>
    <dimension dim="3">spin</dimension>
    <field>eigene</field>
    <field>occ</field>
    <set>
     <set comment="spin 1">
      <set comment="kpoint 1">
       <r>  -12.1590    1.0000 </r>
       <r>    8.8864    1.0000 </r>
       <r>    8.8864    1.0000 </r>
       <r>    8.8864    1.0000 </r>
       <r>   14.9901    0.0000 </r>
       <r>   14.9901    0.0000 </r>
       <r>   14.9901    0.0000 </r>
       <r>   22.8472    0.0000 </r>
      </set>
      <set comment="kpoint 2">
       <r>  -12.0378    1.0000 </r>
       <r>    8.1191    1.0000 </r>
       <r>    8.6881    1.0000 </r>
       <r>    8.6881    1.0000 </r>
       <r>   15.2562    0.0000 </r>
       <r>   15.2562    0.0000 </r>
       <r>   15.4601    0.0000 </r>
       <r>   22.9575    0.0000 </r>
      </set>
      <set comment="kpoint 3">
       <r>  -11.6754    1.0000 </r>
       <r>    6.3559    1.0000 </r>
       <r>    8.2045    1.0000 </r>
       <r>    8.2045    1.0000 </r>
       <r>   15.9111    0.0000 </r>
       <r>   15.9111    0.0000 </r>
       <r>   16.3588    0.0000 </r>
       <r>   23.2867    0.0000 </r>
      </set>
      <set comment="kpoint 4">
       <r>  -11.0753    1.0000 </r>
       <r>    4.2231    1.0000 </r>
       <r>    7.6270    1.0000 </r>
       <r>    7.6270    1.0000 </r>
       <r>   16.6761    0.0000 </r>
       <r>   16.6761    0.0000 </r>
       <r>   17.1489    0.0000 </r>
       <r>   23.8084    0.0000 </r>
      </set>
      <set comment="kpoint 5">
       <r>  -10.2456    1.0000 </r>
       <r>    2.0078    1.0000 </r>
       <r>    7.0853    1.0000 </r>
       <r>    7.0853    1.0000 </r>
       <r>   17.3193    0.0000 </r>
       <r>   17.3193    0.0000 </r>
       <r>   17.7006    0.0000 </r>
       <r>   24.4409    0.0000 </r>
      </set>
      <set comment="kpoint 6">
       <r>   -9.2032    1.0000 </r>
       <r>   -0.1448    1.0000 </r>
       <r>    6.6460    1.0000 </r>
       <r>    6.6460    1.0000 </r>
       <r>   17.7257    0.0000 </r>
       <r>   17.7257    0.0000 </r>
       <r>   18.0474    0.0000 </r>
       <r>   25.0527    0.0000 </r>
      </set>
      <set comment="kpoint 7">
       <r>   -7.9966    1.0000 </r>
       <r>   -2.1201    1.0000 </r>
       <r>    6.3414    1.0000 </r>
       <r>    6.3414    1.0000 </r>
       <r>   17.9171    0.0000 </r>
       <r>   17.9172    0.0000 </r>
       <r>   18.2470    0.0000 </r>
       <r>   25.5048    0.0000 </r>
      </set>
      <set comment="kpoint 8">
       <r>   -6.8503    1.0000 </r>
       <r>   -3.6585    1.0000 </r>
       <r>    6.1862    1.0000 </r>
       <r>    6.1862    1.0000 </r>
       <r>   17.9800    0.0000 </r>
       <r>   17.9800    0.0000 </r>
       <r>   18.3382    0.0000 </r>
       <r>   25.7342    0.0000 </r>
      </set>
      <set comment="kpoint 9">
       <r>  -11.9975    1.0000 </r>
       <r>    8.3175    1.0000 </r>
       <r>    8.3175    1.0000 </r>
       <r>    8.4936    1.0000 </r>
       <r>   14.8889    0.0000 </r>
       <r>   15.7069    0.0000 </r>
       <r>   15.7069    0.0000 </r>
       <r>   22.9589    0.0000 </r>
      </set>
      <set comment="kpoint 10">
       <r>  -11.7155    1.0000 </r>
       <r>    6.9437    1.0000 </r>
       <r>    7.7410    1.0000 </r>
       <r>    8.2926    1.0000 </r>
       <r>   15.0844    0.0000 </r>
       <r>   16.4788    0.0000 </r>
       <r>   16.5359    0.0000 </r>
       <r>   23.1080    0.0000 </r>
      </set>
      <set comment="kpoint 11">
       <r>  -11.1946    1.0000 </r>
       <r>    4.9543    1.0000 </r>
       <r>    7.1366    1.0000 </r>
       <r>    7.8462    1.0000 </r>
       <r>   15.7035    0.0000 </r>
       <r>   17.3124    0.0000 </r>
       <r>   17.3714    0.0000 </r>
       <r>   23.3943    0.0000 </r>
      </set>
      <set comment="kpoint 12">
       <r>  -10.4411    1.0000 </r>
       <r>    2.7855    1.0000 </r>
       <r>    6.6118    1.0000 </r>
       <r>    7.2766    1.0000 </r>
       <r>   16.4358    0.0000 </r>
       <r>   17.9882    0.0000 </r>
       <r>   17.9899    0.0000 </r>
       <r>   23.8121    0.0000 </r>
      </set>
      <set comment="kpoint 13">
       <r>   -9.4682    1.0000 </r>
       <r>    0.6235    1.0000 </r>
       <r>    6.2207    1.0000 </r>
       <r>    6.7172    1.0000 </r>
       <r>   17.0393    0.0000 </r>
       <r>   18.3852    0.0000 </r>
       <r>   18.3880    0.0000 </r>
       <r>   24.3682    0.0000 </r>
      </set>
      <set comment="kpoint 14">
       <r>   -8.3088    1.0000 </r>
       <r>   -1.4105    1.0000 </r>
       <r>    5.9885    1.0000 </r>
       <r>    6.2412    1.0000 </r>
       <r>   17.4373    0.0000 </r>
       <r>   18.5115    0.0000 </r>
       <r>   18.6179    0.0000 </r>
       <r>   24.9904    0.0000 </r>
      </set>
      <set comment="kpoint 15">
       <r>   -7.0889    1.0000 </r>
       <r>   -3.1438    1.0000 </r>
       <r>    5.8883    1.0000 </r>
       <r>    5.9237    1.0000 </r>
       <r>   17.6897    0.0000 </r>
       <r>   18.4505    0.0000 </r>
       <r>   18.7330    0.0000 </r>
       <r>   25.4866    0.0000 </r>
      </set>
      <set comment="kpoint 16">
       <r>   -6.5462    1.0000 </r>
       <r>   -3.8160    1.0000 </r>
       <r>    5.6811    1.0000 </r>
       <r>    6.0248    1.0000 </r>
       <r>   17.8795    0.0000 </r>
       <r>   18.2936    0.0000 </r>
       <r>   18.7554    0.0000 </r>
       <r>   25.6636    0.0000 </r>
      </set>
      <set comment="kpoint 17">
       <r>   -7.4831    1.0000 </r>
       <r>   -2.6191    1.0000 </r>
       <r>    5.6336    1.0000 </r>
       <r>    6.2830    1.0000 </r>
       <r>   18.0315    0.0000 </r>
       <r>   18.0706    0.0000 </r>
       <r>   18.6893    0.0000 </r>
       <r>   25.4628    0.0000 </r>
      </set>
      <set comment="kpoint 18">
       <r>   -8.7125    1.0000 </r>
       <r>   -0.7512    1.0000 </r>
       <r>    5.7527    1.0000 </r>
       <r>    6.6820    1.0000 </r>
       <r>   17.7446    0.0000 </r>
       <r>   18.0943    0.0000 </r>
       <r>   18.5128    0.0000 </r>
       <r>   24.9618    0.0000 </r>
      </set>
      <set comment="kpoint 19">
       <r>   -9.8158    1.0000 </r>
       <r>    1.3395    1.0000 </r>
       <r>    6.0381    1.0000 </r>
       <r>    7.1939    1.0000 </r>
       <r>   17.2501    0.0000 </r>
       <r>   17.9750    0.0000 </r>
       <r>   18.1656    0.0000 </r>
       <r>   24.3522    0.0000 </r>
      </set>
      <set comment="kpoint 20">
       <r>  -10.7177    1.0000 </r>
       <r>    3.5181    1.0000 </r>
       <r>    6.4791    1.0000 </r>
       <r>    7.7697    1.0000 </r>
       <r>   16.5770    0.0000 </r>
       <r>   17.5336    0.0000 </r>
       <r>   17.6432    0.0000 </r>
       <r>   23.8092    0.0000 </r>
      </set>
      <set comment="kpoint 21">
       <r>  -11.3945    1.0000 </r>
       <r>    5.6440    1.0000 </r>
       <r>    7.0519    1.0000 </r>
       <r>    8.3181    1.0000 </r>
       <r>   15.8498    0.0000 </r>
       <r>   16.7214    0.0000 </r>
       <r>   17.0002    0.0000 </r>
       <r>   23.3923    0.0000 </r>
      </set>
      <set comment="kpoint 22">
       <r>  -11.8363    1.0000 </r>
       <r>    7.3864    1.0000 </r>
       <r>    7.7845    1.0000 </r>
       <r>    8.6825    1.0000 </r>
       <r>   15.3220    0.0000 </r>
       <r>   15.8713    0.0000 </r>
       <r>   16.1572    0.0000 </r>
       <r>   23.1047    0.0000 </r>
      </set>
      <set comment="kpoint 23">
       <r>  -11.5144    1.0000 </r>
       <r>    7.1118    1.0000 </r>
       <r>    7.1118    1.0000 </r>
       <r>    7.4118    1.0000 </r>
       <r>   14.6286    0.0000 </r>
       <r>   17.3485    0.0000 </r>
       <r>   17.3485    0.0000 </r>
       <r>   22.8711    0.0000 </r>
      </set>
      <set comment="kpoint 24">
       <r>  -11.0740    1.0000 </r>
       <r>    5.5634    1.0000 </r>
       <r>    6.4821    1.0000 </r>
       <r>    7.1465    1.0000 </r>
       <r>   14.7864    0.0000 </r>
       <r>   18.2620    0.0000 </r>
       <r>   18.2783    0.0000 </r>
       <r>   22.6180    0.0000 </r>
      </set>
      <set comment="kpoint 25">
       <r>  -10.3995    1.0000 </r>
       <r>    3.5703    1.0000 </r>
       <r>    5.9515    1.0000 </r>
       <r>    6.6769    1.0000 </r>
       <r>   15.3969    0.0000 </r>
       <r>   18.9818    0.0000 </r>
       <r>   19.0546    0.0000 </r>
       <r>   22.4900    0.0000 </r>
      </set>
      <set comment="kpoint 26">
       <r>   -9.5014    1.0000 </r>
       <r>    1.4844    1.0000 </r>
       <r>    5.5721    1.0000 </r>
       <r>    6.0699    1.0000 </r>
       <r>   16.1071    0.0000 </r>
       <r>   19.4564    0.0000 </r>
       <r>   19.5316    0.0000 </r>
       <r>   22.7115    0.0000 </r>
      </set>
      <set comment="kpoint 27">
       <r>   -8.4037    1.0000 </r>
       <r>   -0.5447    1.0000 </r>
       <r>    5.3687    1.0000 </r>
       <r>    5.4659    1.0000 </r>
       <r>   16.6612    0.0000 </r>
       <r>   19.6791    0.0000 </r>
       <r>   19.7378    0.0000 </r>
       <r>   23.4042    0.0000 </r>
      </set>
      <set comment="kpoint 28">
       <r>   -7.1831    1.0000 </r>
       <r>   -2.3714    1.0000 </r>
       <r>    4.9468    1.0000 </r>
       <r>    5.3496    1.0000 </r>
       <r>   17.0391    0.0000 </r>
       <r>   19.5708    0.0000 </r>
       <r>   19.8827    0.0000 </r>
       <r>   24.3929    0.0000 </r>
      </set>
      <set comment="kpoint 29">
       <r>   -6.2588    1.0000 </r>
       <r>   -3.5404    1.0000 </r>
       <r>    4.5601    1.0000 </r>
       <r>    5.5117    1.0000 </r>
       <r>   17.3470    0.0000 </r>
       <r>   19.3046    0.0000 </r>
       <r>   19.9301    0.0000 </r>
       <r>   25.2087    0.0000 </r>
      </set>
      <set comment="kpoint 30">
       <r>   -6.7984    1.0000 </r>
       <r>   -2.8707    1.0000 </r>
       <r>    4.3347    1.0000 </r>
       <r>    5.8420    1.0000 </r>
       <r>   17.6526    0.0000 </r>
       <r>   18.9338    0.0000 </r>
       <r>   19.8906    0.0000 </r>
       <r>   25.3082    0.0000 </r>
      </set>
      <set comment="kpoint 31">
       <r>   -8.0073    1.0000 </r>
       <r>   -1.1635    1.0000 </r>
       <r>    4.2891    1.0000 </r>
       <r>    6.3161    1.0000 </r>
       <r>   17.9359    0.0000 </r>
       <r>   18.4485    0.0000 </r>
       <r>   19.7367    0.0000 </r>
       <r>   24.7117    0.0000 </r>
      </set>
      <set comment="kpoint 32">
       <r>   -9.1586    1.0000 </r>
       <r>    0.8241    1.0000 </r>
       <r>    4.4360    1.0000 </r>
       <r>    6.8938    1.0000 </r>
       <r>   17.8117    0.0000 </r>
       <r>   18.1031    0.0000 </r>
       <r>   19.3703    0.0000 </r>
       <r>   23.9853    0.0000 </r>
      </set>
      <set comment="kpoint 33">
       <r>  -10.1260    1.0000 </r>
       <r>    2.8896    1.0000 </r>
       <r>    4.7956    1.0000 </r>
       <r>    7.5067    1.0000 </r>
       <r>   17.0451    0.0000 </r>
       <r>   18.0382    0.0000 </r>
       <r>   18.6677    0.0000 </r>
       <r>   23.5564    0.0000 </r>
      </set>
      <set comment="kpoint 34">
       <r>  -10.8759    1.0000 </r>
       <r>    4.6994    1.0000 </r>
       <r>    5.5490    1.0000 </r>
       <r>    8.0385    1.0000 </r>
       <r>   16.3023    0.0000 </r>
       <r>   17.6672    0.0000 </r>
       <r>   17.6952    0.0000 </r>
       <r>   23.4365    0.0000 </r>
      </set>
      <set comment="kpoint 35">
       <r>  -10.7148    1.0000 </r>
       <r>    5.8275    1.0000 </r>
       <r>    5.8275    1.0000 </r>
       <r>    5.8345    1.0000 </r>
       <r>   14.3096    0.0000 </r>
       <r>   19.3353    0.0000 </r>
       <r>   19.3353    0.0000 </r>
       <r>   21.7136    0.0000 </r>
      </set>
      <set comment="kpoint 36">
       <r>  -10.1208    1.0000 </r>
       <r>    4.1517    1.0000 </r>
       <r>    5.2743    1.0000 </r>
       <r>    5.6227    1.0000 </r>
       <r>   14.4825    0.0000 </r>
       <r>   20.2364    0.0000 </r>
       <r>   20.2668    0.0000 </r>
       <r>   20.9960    0.0000 </r>
      </set>
      <set comment="kpoint 37">
       <r>   -9.3009    1.0000 </r>
       <r>    2.2811    1.0000 </r>
       <r>    4.8783    1.0000 </r>
       <r>    5.0602    1.0000 </r>
       <r>   15.1117    0.0000 </r>
       <r>   20.6340    0.0000 </r>
       <r>   20.9013    0.0000 </r>
       <r>   20.9630    0.0000 </r>
      </set>
      <set comment="kpoint 38">
       <r>   -8.2736    1.0000 </r>
       <r>    0.3656    1.0000 </r>
       <r>    4.3672    1.0000 </r>
       <r>    4.6672    1.0000 </r>
       <r>   15.7811    0.0000 </r>
       <r>   21.0024    0.0000 </r>
       <r>   21.1620    0.0000 </r>
       <r>   21.4045    0.0000 </r>
      </set>
      <set comment="kpoint 39">
       <r>   -7.0898    1.0000 </r>
       <r>   -1.4516    1.0000 </r>
       <r>    3.7031    1.0000 </r>
       <r>    4.6515    1.0000 </r>
       <r>   16.2606    0.0000 </r>
       <r>   21.0889    0.0000 </r>
       <r>   21.3818    0.0000 </r>
       <r>   22.3651    0.0000 </r>
      </set>
      <set comment="kpoint 40">
       <r>   -5.9789    1.0000 </r>
       <r>   -2.8836    1.0000 </r>
       <r>    3.1556    1.0000 </r>
       <r>    4.8294    1.0000 </r>
       <r>   16.6306    0.0000 </r>
       <r>   20.7730    0.0000 </r>
       <r>   21.4878    0.0000 </r>
       <r>   23.8236    0.0000 </r>
      </set>
      <set comment="kpoint 41">
       <r>   -5.9953    1.0000 </r>
       <r>   -2.8481    1.0000 </r>
       <r>    2.7739    1.0000 </r>
       <r>    5.1877    1.0000 </r>
       <r>   17.0156    0.0000 </r>
       <r>   20.2824    0.0000 </r>
       <r>   21.4847    0.0000 </r>
       <r>   24.8681    0.0000 </r>
      </set>
      <set comment="kpoint 42">
       <r>   -7.1089    1.0000 </r>
       <r>   -1.3776    1.0000 </r>
       <r>    2.5909    1.0000 </r>
       <r>    5.6995    1.0000 </r>
       <r>   17.4423    0.0000 </r>
       <r>   19.6291    0.0000 </r>
       <r>   21.3548    0.0000 </r>
       <r>   24.5349    0.0000 </r>
      </set>
      <set comment="kpoint 43">
       <r>   -8.2870    1.0000 </r>
       <r>    0.4440    1.0000 </r>
       <r>    2.6520    1.0000 </r>
       <r>    6.3181    1.0000 </r>
       <r>   17.8454    0.0000 </r>
       <r>   18.8057    0.0000 </r>
       <r>   20.9120    0.0000 </r>
       <r>   23.6985    0.0000 </r>
      </set>
      <set comment="kpoint 44">
       <r>   -9.3095    1.0000 </r>
       <r>    2.0918    1.0000 </r>
       <r>    3.2145    1.0000 </r>
       <r>    6.9639    1.0000 </r>
       <r>   17.8796    0.0000 </r>
       <r>   18.0913    0.0000 </r>
       <r>   19.9235    0.0000 </r>
       <r>   23.3857    0.0000 </r>
      </set>
      <set comment="kpoint 45">
       <r>   -9.6081    1.0000 </r>
       <r>    3.9279    1.0000 </r>
       <r>    4.6903    1.0000 </r>
       <r>    4.6903    1.0000 </r>
       <r>   14.0426    0.0000 </r>
       <r>   19.7509    0.0000 </r>
       <r>   21.4001    0.0000 </r>
       <r>   21.4001    0.0000 </r>
      </set>
      <set comment="kpoint 46">
       <r>   -8.8685    1.0000 </r>
       <r>    2.5750    1.0000 </r>
       <r>    4.1712    1.0000 </r>
       <r>    4.2613    1.0000 </r>
       <r>   14.2755    0.0000 </r>
       <r>   19.0067    0.0000 </r>
       <r>   22.2536    0.0000 </r>
       <r>   22.2575    0.0000 </r>
      </set>
      <set comment="kpoint 47">
       <r>   -7.9171    1.0000 </r>
       <r>    0.9957    1.0000 </r>
       <r>    3.3958    1.0000 </r>
       <r>    4.0197    1.0000 </r>
       <r>   14.9292    0.0000 </r>
       <r>   18.9694    0.0000 </r>
       <r>   22.7056    0.0000 </r>
       <r>   22.7957    0.0000 </r>
      </set>
      <set comment="kpoint 48">
       <r>   -6.7900    1.0000 </r>
       <r>   -0.6211    1.0000 </r>
       <r>    2.5472    1.0000 </r>
       <r>    3.9794    1.0000 </r>
       <r>   15.5164    0.0000 </r>
       <r>   19.8494    0.0000 </r>
       <r>   22.7412    0.0000 </r>
       <r>   23.0932    0.0000 </r>
      </set>
      <set comment="kpoint 49">
       <r>   -5.6205    1.0000 </r>
       <r>   -2.0753    1.0000 </r>
       <r>    1.8034    1.0000 </r>
       <r>    4.1411    1.0000 </r>
       <r>   15.9265    0.0000 </r>
       <r>   21.4474    0.0000 </r>
       <r>   22.4278    0.0000 </r>
       <r>   23.2716    0.0000 </r>
      </set>
      <set comment="kpoint 50">
       <r>   -5.1509    1.0000 </r>
       <r>   -2.5775    1.0000 </r>
       <r>    1.2534    1.0000 </r>
       <r>    4.4935    1.0000 </r>
       <r>   16.3328    0.0000 </r>
       <r>   21.8362    0.0000 </r>
       <r>   22.8653    0.0000 </r>
       <r>   23.7630    0.0000 </r>
      </set>
      <set comment="kpoint 51">
       <r>   -6.0583    1.0000 </r>
       <r>   -1.4604    1.0000 </r>
       <r>    0.9682    1.0000 </r>
       <r>    5.0108    1.0000 </r>
       <r>   16.8196    0.0000 </r>
       <r>   20.9978    0.0000 </r>
       <r>   23.0299    0.0000 </r>
       <r>   24.3437    0.0000 </r>
      </set>
      <set comment="kpoint 52">
       <r>   -7.2282    1.0000 </r>
       <r>   -0.1167    1.0000 </r>
       <r>    1.2355    1.0000 </r>
       <r>    5.6461    1.0000 </r>
       <r>   17.3605    0.0000 </r>
       <r>   19.9466    0.0000 </r>
       <r>   22.4344    0.0000 </r>
       <r>   23.7030    0.0000 </r>
      </set>
      <set comment="kpoint 53">
       <r>   -8.2099    1.0000 </r>
       <r>    1.8181    1.0000 </r>
       <r>    3.7916    1.0000 </r>
       <r>    3.7916    1.0000 </r>
       <r>   13.9213    0.0000 </r>
       <r>   17.8241    0.0000 </r>
       <r>   23.3655    0.0000 </r>
       <r>   23.3655    0.0000 </r>
      </set>
      <set comment="kpoint 54">
       <r>   -7.3372    1.0000 </r>
       <r>    0.6434    1.0000 </r>
       <r>    3.1804    1.0000 </r>
       <r>    3.5073    1.0000 </r>
       <r>   14.2470    0.0000 </r>
       <r>   17.2836    0.0000 </r>
       <r>   24.0641    0.0000 </r>
       <r>   24.1031    0.0000 </r>
      </set>
      <set comment="kpoint 55">
       <r>   -6.2780    1.0000 </r>
       <r>   -0.5707    1.0000 </r>
       <r>    2.1815    1.0000 </r>
       <r>    3.4263    1.0000 </r>
       <r>   14.8930    0.0000 </r>
       <r>   17.6290    0.0000 </r>
       <r>   24.2692    0.0000 </r>
       <r>   24.5046    0.0000 </r>
      </set>
      <set comment="kpoint 56">
       <r>   -5.1164    1.0000 </r>
       <r>   -1.7273    1.0000 </r>
       <r>    1.1150    1.0000 </r>
       <r>    3.5524    1.0000 </r>
       <r>   15.3486    0.0000 </r>
       <r>   19.0422    0.0000 </r>
       <r>   24.0019    0.0000 </r>
       <r>   24.6747    0.0000 </r>
      </set>
      <set comment="kpoint 57">
       <r>   -4.3311    1.0000 </r>
       <r>   -2.4146    1.0000 </r>
       <r>    0.2840    1.0000 </r>
       <r>    3.8771    1.0000 </r>
       <r>   15.7378    0.0000 </r>
       <r>   21.0702    0.0000 </r>
       <r>   23.3240    0.0000 </r>
       <r>   24.6992    0.0000 </r>
      </set>
      <set comment="kpoint 58">
       <r>   -4.9607    1.0000 </r>
       <r>   -1.8197    1.0000 </r>
       <r>    0.0323    1.0000 </r>
       <r>    4.3777    1.0000 </r>
       <r>   16.2250    0.0000 </r>
       <r>   22.2910    0.0000 </r>
       <r>   23.0406    0.0000 </r>
       <r>   24.4989    0.0000 </r>
      </set>
      <set comment="kpoint 59">
       <r>   -6.5437    1.0000 </r>
       <r>   -0.3823    1.0000 </r>
       <r>    3.1748    1.0000 </r>
       <r>    3.1748    1.0000 </r>
       <r>   14.0220    0.0000 </r>
       <r>   16.2682    0.0000 </r>
       <r>   25.0197    0.0000 </r>
       <r>   25.0197    0.0000 </r>
      </set>
      <set comment="kpoint 60">
       <r>   -5.5581    1.0000 </r>
       <r>   -1.4727    1.0000 </r>
       <r>    2.6316    1.0000 </r>
       <r>    3.0446    1.0000 </r>
       <r>   14.4556    0.0000 </r>
       <r>   15.9843    0.0000 </r>
       <r>   25.4248    0.0000 </r>
       <r>   25.5082    0.0000 </r>
      </set>
      <set comment="kpoint 61">
       <r>   -4.4372    1.0000 </r>
       <r>   -2.4615    1.0000 </r>
       <r>    1.6311    1.0000 </r>
       <r>    3.1240    1.0000 </r>
       <r>   14.9623    0.0000 </r>
       <r>   16.8564    0.0000 </r>
       <r>   25.2434    0.0000 </r>
       <r>   25.6326    0.0000 </r>
      </set>
      <set comment="kpoint 62">
       <r>   -3.6619    1.0000 </r>
       <r>   -2.9719    1.0000 </r>
       <r>    0.6054    1.0000 </r>
       <r>    3.4078    1.0000 </r>
       <r>   15.2920    0.0000 </r>
       <r>   18.7693    0.0000 </r>
       <r>   24.5134    0.0000 </r>
       <r>   25.4128    0.0000 </r>
      </set>
      <set comment="kpoint 63">
       <r>   -4.6457    1.0000 </r>
       <r>   -2.5678    1.0000 </r>
       <r>    2.8617    1.0000 </r>
       <r>    2.8617    1.0000 </r>
       <r>   14.4083    0.0000 </r>
       <r>   15.1392    0.0000 </r>
       <r>   26.0168    0.0000 </r>
       <r>   26.0168    0.0000 </r>
      </set>
      <set comment="kpoint 64">
       <r>   -3.6050    1.0000 </r>
       <r>   -3.5524    1.0000 </r>
       <r>    2.4541    1.0000 </r>
       <r>    2.8888    1.0000 </r>
       <r>   14.7910    0.0000 </r>
       <r>   15.2816    0.0000 </r>
       <r>   25.9512    0.0000 </r>
       <r>   26.0580    0.0000 </r>
      </set>
      <set comment="kpoint 65">
       <r>  -11.3542    1.0000 </r>
       <r>    6.0502    1.0000 </r>
       <r>    6.6291    1.0000 </r>
       <r>    8.0373    1.0000 </r>
       <r>   15.2329    0.0000 </r>
       <r>   17.3380    0.0000 </r>
       <r>   17.3744    0.0000 </r>
       <r>   23.1136    0.0000 </r>
      </set>
      <set comment="kpoint 66">
       <r>  -10.7565    1.0000 </r>
       <r>    4.2502    1.0000 </r>
       <r>    5.8794    1.0000 </r>
       <r>    7.6102    1.0000 </r>
       <r>   15.8287    0.0000 </r>
       <r>   18.0479    0.0000 </r>
       <r>   18.2563    0.0000 </r>
       <r>   23.1576    0.0000 </r>
      </set>
      <set comment="kpoint 67">
       <r>   -9.9303    1.0000 </r>
       <r>    2.1530    1.0000 </r>
       <r>    5.4020    1.0000 </r>
       <r>    7.0374    1.0000 </r>
       <r>   16.5734    0.0000 </r>
       <r>   18.4396    0.0000 </r>
       <r>   18.9979    0.0000 </r>
       <r>   23.3896    0.0000 </r>
      </set>
      <set comment="kpoint 68">
       <r>   -8.8935    1.0000 </r>
       <r>    0.0656    1.0000 </r>
       <r>    5.0965    1.0000 </r>
       <r>    6.4608    1.0000 </r>
       <r>   17.2036    0.0000 </r>
       <r>   18.5688    0.0000 </r>
       <r>   19.4571    0.0000 </r>
       <r>   23.9575    0.0000 </r>
      </set>
      <set comment="kpoint 69">
       <r>   -7.6951    1.0000 </r>
       <r>   -1.8695    1.0000 </r>
       <r>    4.9505    1.0000 </r>
       <r>    5.9801    1.0000 </r>
       <r>   17.6228    0.0000 </r>
       <r>   18.5145    0.0000 </r>
       <r>   19.6891    0.0000 </r>
       <r>   24.7423    0.0000 </r>
      </set>
      <set comment="kpoint 70">
       <r>   -6.5603    1.0000 </r>
       <r>   -3.3822    1.0000 </r>
       <r>    4.9213    1.0000 </r>
       <r>    5.6857    1.0000 </r>
       <r>   17.8516    0.0000 </r>
       <r>   18.4036    0.0000 </r>
       <r>   19.7840    0.0000 </r>
       <r>   25.3459    0.0000 </r>
      </set>
      <set comment="kpoint 71">
       <r>  -10.5569    1.0000 </r>
       <r>    4.6409    1.0000 </r>
       <r>    5.3800    1.0000 </r>
       <r>    6.7526    1.0000 </r>
       <r>   14.9422    0.0000 </r>
       <r>   19.0389    0.0000 </r>
       <r>   19.3218    0.0000 </r>
       <r>   22.0782    0.0000 </r>
      </set>
      <set comment="kpoint 72">
       <r>   -9.8094    1.0000 </r>
       <r>    2.9186    1.0000 </r>
       <r>    4.6935    1.0000 </r>
       <r>    6.2722    1.0000 </r>
       <r>   15.5752    0.0000 </r>
       <r>   19.5133    0.0000 </r>
       <r>   20.2457    0.0000 </r>
       <r>   21.7860    0.0000 </r>
      </set>
      <set comment="kpoint 73">
       <r>   -8.8459    1.0000 </r>
       <r>    0.9488    1.0000 </r>
       <r>    4.3074    1.0000 </r>
       <r>    5.6914    1.0000 </r>
       <r>   16.3153    0.0000 </r>
       <r>   19.6858    0.0000 </r>
       <r>   20.8374    0.0000 </r>
       <r>   22.0839    0.0000 </r>
      </set>
      <set comment="kpoint 74">
       <r>   -7.7005    1.0000 </r>
       <r>   -0.9716    1.0000 </r>
       <r>    4.0520    1.0000 </r>
       <r>    5.1982    1.0000 </r>
       <r>   16.8794    0.0000 </r>
       <r>   19.6258    0.0000 </r>
       <r>   21.1513    0.0000 </r>
       <r>   22.9927    0.0000 </r>
      </set>
      <set comment="kpoint 75">
       <r>   -6.5014    1.0000 </r>
       <r>   -2.6325    1.0000 </r>
       <r>    3.8218    1.0000 </r>
       <r>    4.9731    1.0000 </r>
       <r>   17.2628    0.0000 </r>
       <r>   19.4246    0.0000 </r>
       <r>   21.2939    0.0000 </r>
       <r>   24.1773    0.0000 </r>
      </set>
      <set comment="kpoint 76">
       <r>   -5.9764    1.0000 </r>
       <r>   -3.2704    1.0000 </r>
       <r>    3.5880    1.0000 </r>
       <r>    5.0843    1.0000 </r>
       <r>   17.5893    0.0000 </r>
       <r>   19.1280    0.0000 </r>
       <r>   21.2927    0.0000 </r>
       <r>   24.9572    0.0000 </r>
      </set>
      <set comment="kpoint 77">
       <r>   -6.8943    1.0000 </r>
       <r>   -2.1079    1.0000 </r>
       <r>    3.4407    1.0000 </r>
       <r>    5.4520    1.0000 </r>
       <r>   17.9129    0.0000 </r>
       <r>   18.7381    0.0000 </r>
       <r>   21.1694    0.0000 </r>
       <r>   24.5822    0.0000 </r>
      </set>
      <set comment="kpoint 78">
       <r>   -8.1037    1.0000 </r>
       <r>   -0.3153    1.0000 </r>
       <r>    3.4548    1.0000 </r>
       <r>    5.9874    1.0000 </r>
       <r>   17.9768    0.0000 </r>
       <r>   18.4203    0.0000 </r>
       <r>   20.8929    0.0000 </r>
       <r>   23.6282    0.0000 </r>
      </set>
      <set comment="kpoint 79">
       <r>   -9.1931    1.0000 </r>
       <r>    1.6297    1.0000 </r>
       <r>    3.6856    1.0000 </r>
       <r>    6.6074    1.0000 </r>
       <r>   17.2830    0.0000 </r>
       <r>   18.5325    0.0000 </r>
       <r>   20.3177    0.0000 </r>
       <r>   22.9564    0.0000 </r>
      </set>
      <set comment="kpoint 80">
       <r>  -10.0856    1.0000 </r>
       <r>    3.3525    1.0000 </r>
       <r>    4.3576    1.0000 </r>
       <r>    7.1998    1.0000 </r>
       <r>   16.4465    0.0000 </r>
       <r>   18.4553    0.0000 </r>
       <r>   19.3575    0.0000 </r>
       <r>   22.8887    0.0000 </r>
      </set>
      <set comment="kpoint 81">
       <r>   -9.4540    1.0000 </r>
       <r>    3.1908    1.0000 </r>
       <r>    4.2699    1.0000 </r>
       <r>    5.2267    1.0000 </r>
       <r>   14.6876    0.0000 </r>
       <r>   20.2009    0.0000 </r>
       <r>   20.8855    0.0000 </r>
       <r>   21.4071    0.0000 </r>
      </set>
      <set comment="kpoint 82">
       <r>   -8.5680    1.0000 </r>
       <r>    1.6494    1.0000 </r>
       <r>    3.6083    1.0000 </r>
       <r>    4.7255    1.0000 </r>
       <r>   15.3724    0.0000 </r>
       <r>   19.9635    0.0000 </r>
       <r>   21.1781    0.0000 </r>
       <r>   22.2977    0.0000 </r>
      </set>
      <set comment="kpoint 83">
       <r>   -7.4884    1.0000 </r>
       <r>   -0.0899    1.0000 </r>
       <r>    3.1198    1.0000 </r>
       <r>    4.2913    1.0000 </r>
       <r>   16.0747    0.0000 </r>
       <r>   20.4734    0.0000 </r>
       <r>   21.2228    0.0000 </r>
       <r>   22.8503    0.0000 </r>
      </set>
      <set comment="kpoint 84">
       <r>   -6.2947    1.0000 </r>
       <r>   -1.7399    1.0000 </r>
       <r>    2.6119    1.0000 </r>
       <r>    4.1664    1.0000 </r>
       <r>   16.5534    0.0000 </r>
       <r>   20.9463    0.0000 </r>
       <r>   21.7934    0.0000 </r>
       <r>   23.1566    0.0000 </r>
      </set>
      <set comment="kpoint 85">
       <r>   -5.4088    1.0000 </r>
       <r>   -2.8015    1.0000 </r>
       <r>    2.1497    1.0000 </r>
       <r>    4.3464    1.0000 </r>
       <r>   16.9390    0.0000 </r>
       <r>   20.6311    0.0000 </r>
       <r>   22.6744    0.0000 </r>
       <r>   23.8165    0.0000 </r>
      </set>
      <set comment="kpoint 86">
       <r>   -5.9470    1.0000 </r>
       <r>   -2.1342    1.0000 </r>
       <r>    1.8369    1.0000 </r>
       <r>    4.7544    1.0000 </r>
       <r>   17.3630    0.0000 </r>
       <r>   20.1072    0.0000 </r>
       <r>   22.6554    0.0000 </r>
       <r>   24.3868    0.0000 </r>
      </set>
      <set comment="kpoint 87">
       <r>   -7.1214    1.0000 </r>
       <r>   -0.5621    1.0000 </r>
       <r>    1.7585    1.0000 </r>
       <r>    5.3255    1.0000 </r>
       <r>   17.8386    0.0000 </r>
       <r>   19.3286    0.0000 </r>
       <r>   22.4118    0.0000 </r>
       <r>   23.5356    0.0000 </r>
      </set>
      <set comment="kpoint 88">
       <r>   -8.2449    1.0000 </r>
       <r>    0.9332    1.0000 </r>
       <r>    2.1984    1.0000 </r>
       <r>    5.9823    1.0000 </r>
       <r>   18.2813    0.0000 </r>
       <r>   18.3132    0.0000 </r>
       <r>   21.6605    0.0000 </r>
       <r>   22.8444    0.0000 </r>
      </set>
      <set comment="kpoint 89">
       <r>   -8.0626    1.0000 </r>
       <r>    1.5305    1.0000 </r>
       <r>    3.3965    1.0000 </r>
       <r>    3.8961    1.0000 </r>
       <r>   14.5695    0.0000 </r>
       <r>   18.3403    0.0000 </r>
       <r>   22.7283    0.0000 </r>
       <r>   23.3864    0.0000 </r>
      </set>
      <set comment="kpoint 90">
       <r>   -7.0563    1.0000 </r>
       <r>    0.2558    1.0000 </r>
       <r>    2.6016    1.0000 </r>
       <r>    3.5214    1.0000 </r>
       <r>   15.3071    0.0000 </r>
       <r>   18.3945    0.0000 </r>
       <r>   22.8680    0.0000 </r>
       <r>   24.1079    0.0000 </r>
      </set>
      <set comment="kpoint 91">
       <r>   -5.9033    1.0000 </r>
       <r>   -1.0985    1.0000 </r>
       <r>    1.7179    1.0000 </r>
       <r>    3.4504    1.0000 </r>
       <r>   15.9115    0.0000 </r>
       <r>   19.4432    0.0000 </r>
       <r>   22.7478    0.0000 </r>
       <r>   24.3794    0.0000 </r>
      </set>
      <set comment="kpoint 92">
       <r>   -4.8422    1.0000 </r>
       <r>   -2.2350    1.0000 </r>
       <r>    0.9600    1.0000 </r>
       <r>    3.6491    1.0000 </r>
       <r>   16.3192    0.0000 </r>
       <r>   21.2255    0.0000 </r>
       <r>   22.3988    0.0000 </r>
       <r>   24.2845    0.0000 </r>
      </set>
      <set comment="kpoint 93">
       <r>   -4.9274    1.0000 </r>
       <r>   -2.0819    1.0000 </r>
       <r>    0.4759    1.0000 </r>
       <r>    4.0637    1.0000 </r>
       <r>   16.7530    0.0000 </r>
       <r>   21.7056    0.0000 </r>
       <r>   23.0795    0.0000 </r>
       <r>   23.9921    0.0000 </r>
      </set>
      <set comment="kpoint 94">
       <r>   -5.9986    1.0000 </r>
       <r>   -1.0240    1.0000 </r>
       <r>    0.5539    1.0000 </r>
       <r>    4.6458    1.0000 </r>
       <r>   17.2777    0.0000 </r>
       <r>   20.6474    0.0000 </r>
       <r>   23.5318    0.0000 </r>
       <r>   23.7041    0.0000 </r>
      </set>
      <set comment="kpoint 95">
       <r>   -6.4085    1.0000 </r>
       <r>   -0.4247    1.0000 </r>
       <r>    2.8081    1.0000 </r>
       <r>    3.0291    1.0000 </r>
       <r>   14.6644    0.0000 </r>
       <r>   16.8335    0.0000 </r>
       <r>   24.3912    0.0000 </r>
       <r>   24.9978    0.0000 </r>
      </set>
      <set comment="kpoint 96">
       <r>   -5.3150    1.0000 </r>
       <r>   -1.4757    1.0000 </r>
       <r>    1.8761    1.0000 </r>
       <r>    2.9071    1.0000 </r>
       <r>   15.4067    0.0000 </r>
       <r>   17.2711    0.0000 </r>
       <r>   24.3790    0.0000 </r>
       <r>   25.3102    0.0000 </r>
      </set>
      <set comment="kpoint 97">
       <r>   -4.2013    1.0000 </r>
       <r>   -2.3934    1.0000 </r>
       <r>    0.7937    1.0000 </r>
       <r>    3.0905    1.0000 </r>
       <r>   15.8365    0.0000 </r>
       <r>   18.8863    0.0000 </r>
       <r>   24.0325    0.0000 </r>
       <r>   25.0670    0.0000 </r>
      </set>
      <set comment="kpoint 98">
       <r>   -4.0189    1.0000 </r>
       <r>   -2.4503    1.0000 </r>
       <r>    0.0908    1.0000 </r>
       <r>    3.4887    1.0000 </r>
       <r>   16.2345    0.0000 </r>
       <r>   21.0515    0.0000 </r>
       <r>   23.1508    0.0000 </r>
       <r>   24.5678    0.0000 </r>
      </set>
      <set comment="kpoint 99">
       <r>   -4.5336    1.0000 </r>
       <r>   -2.5034    1.0000 </r>
       <r>    2.5337    1.0000 </r>
       <r>    2.5964    1.0000 </r>
       <r>   15.0359    0.0000 </r>
       <r>   15.7416    0.0000 </r>
       <r>   25.5711    0.0000 </r>
       <r>   25.8334    0.0000 </r>
      </set>
      <set comment="kpoint 100">
       <r>   -3.5047    1.0000 </r>
       <r>   -3.3153    1.0000 </r>
       <r>    1.6358    1.0000 </r>
       <r>    2.7211    1.0000 </r>
       <r>   15.5272    0.0000 </r>
       <r>   16.8053    0.0000 </r>
       <r>   25.2193    0.0000 </r>
       <r>   25.5327    0.0000 </r>
      </set>
      <set comment="kpoint 101">
       <r>   -8.9956    1.0000 </r>
       <r>    2.0721    1.0000 </r>
       <r>    3.2955    1.0000 </r>
       <r>    5.7738    1.0000 </r>
       <r>   16.3042    0.0000 </r>
       <r>   19.6488    0.0000 </r>
       <r>   21.3955    0.0000 </r>
       <r>   21.4556    0.0000 </r>
      </set>
      <set comment="kpoint 102">
       <r>   -7.9771    1.0000 </r>
       <r>    0.5183    1.0000 </r>
       <r>    2.7001    1.0000 </r>
       <r>    5.1529    1.0000 </r>
       <r>   17.1999    0.0000 </r>
       <r>   19.4771    0.0000 </r>
       <r>   21.5621    0.0000 </r>
       <r>   22.4744    0.0000 </r>
      </set>
      <set comment="kpoint 103">
       <r>   -6.8053    1.0000 </r>
       <r>   -1.2168    1.0000 </r>
       <r>    2.5281    1.0000 </r>
       <r>    4.5934    1.0000 </r>
       <r>   17.8440    0.0000 </r>
       <r>   19.2448    0.0000 </r>
       <r>   22.1671    0.0000 </r>
       <r>   23.3230    0.0000 </r>
      </set>
      <set comment="kpoint 104">
       <r>   -5.7038    1.0000 </r>
       <r>   -2.6299    1.0000 </r>
       <r>    2.4997    1.0000 </r>
       <r>    4.2524    1.0000 </r>
       <r>   18.1177    0.0000 </r>
       <r>   19.1074    0.0000 </r>
       <r>   22.6477    0.0000 </r>
       <r>   24.1352    0.0000 </r>
      </set>
      <set comment="kpoint 105">
       <r>   -7.6264    1.0000 </r>
       <r>    0.8047    1.0000 </r>
       <r>    2.4719    1.0000 </r>
       <r>    4.1606    1.0000 </r>
       <r>   16.2327    0.0000 </r>
       <r>   19.6612    0.0000 </r>
       <r>   21.2140    0.0000 </r>
       <r>   23.4506    0.0000 </r>
      </set>
      <set comment="kpoint 106">
       <r>   -6.5131    1.0000 </r>
       <r>   -0.4972    1.0000 </r>
       <r>    1.8715    1.0000 </r>
       <r>    3.5932    1.0000 </r>
       <r>   17.1523    0.0000 </r>
       <r>   20.0069    0.0000 </r>
       <r>   21.1651    0.0000 </r>
       <r>   24.1310    0.0000 </r>
      </set>
      <set comment="kpoint 107">
       <r>   -5.3566    1.0000 </r>
       <r>   -1.8715    1.0000 </r>
       <r>    1.5178    1.0000 </r>
       <r>    3.3108    1.0000 </r>
       <r>   17.7002    0.0000 </r>
       <r>   20.4327    0.0000 </r>
       <r>   21.7915    0.0000 </r>
       <r>   24.1758    0.0000 </r>
      </set>
      <set comment="kpoint 108">
       <r>   -4.8689    1.0000 </r>
       <r>   -2.4039    1.0000 </r>
       <r>    1.2273    1.0000 </r>
       <r>    3.4234    1.0000 </r>
       <r>   18.0823    0.0000 </r>
       <r>   20.1572    0.0000 </r>
       <r>   23.1685    0.0000 </r>
       <r>   23.5813    0.0000 </r>
      </set>
      <set comment="kpoint 109">
       <r>   -5.7593    1.0000 </r>
       <r>   -1.3665    1.0000 </r>
       <r>    1.0927    1.0000 </r>
       <r>    3.8525    1.0000 </r>
       <r>   18.5038    0.0000 </r>
       <r>   19.5215    0.0000 </r>
       <r>   22.4619    0.0000 </r>
       <r>   24.0349    0.0000 </r>
      </set>
      <set comment="kpoint 110">
       <r>   -6.9226    1.0000 </r>
       <r>   -0.1113    1.0000 </r>
       <r>    1.4328    1.0000 </r>
       <r>    4.4755    1.0000 </r>
       <r>   18.4183    0.0000 </r>
       <r>   19.0203    0.0000 </r>
       <r>   21.7842    0.0000 </r>
       <r>   23.5713    0.0000 </r>
      </set>
      <set comment="kpoint 111">
       <r>   -6.0140    1.0000 </r>
       <r>   -0.6356    1.0000 </r>
       <r>    1.9480    1.0000 </r>
       <r>    2.8101    1.0000 </r>
       <r>   16.3374    0.0000 </r>
       <r>   18.3281    0.0000 </r>
       <r>   22.7627    0.0000 </r>
       <r>   24.8844    0.0000 </r>
      </set>
      <set comment="kpoint 112">
       <r>   -4.8703    1.0000 </r>
       <r>   -1.6371    1.0000 </r>
       <r>    1.1865    1.0000 </r>
       <r>    2.5083    1.0000 </r>
       <r>   17.1933    0.0000 </r>
       <r>   19.2737    0.0000 </r>
       <r>   22.5118    0.0000 </r>
       <r>   24.7637    0.0000 </r>
      </set>
      <set comment="kpoint 113">
       <r>   -4.0628    1.0000 </r>
       <r>   -2.3289    1.0000 </r>
       <r>    0.4842    1.0000 </r>
       <r>    2.6961    1.0000 </r>
       <r>   17.6158    0.0000 </r>
       <r>   21.0997    0.0000 </r>
       <r>   22.1406    0.0000 </r>
       <r>   23.8198    0.0000 </r>
      </set>
      <set comment="kpoint 114">
       <r>   -4.6679    1.0000 </r>
       <r>   -1.7944    1.0000 </r>
       <r>    0.2885    1.0000 </r>
       <r>    3.1792    1.0000 </r>
       <r>   18.0438    0.0000 </r>
       <r>   20.9944    0.0000 </r>
       <r>   22.8780    0.0000 </r>
       <r>   23.2163    0.0000 </r>
      </set>
      <set comment="kpoint 115">
       <r>   -4.2209    1.0000 </r>
       <r>   -2.3630    1.0000 </r>
       <r>    1.7750    1.0000 </r>
       <r>    2.0245    1.0000 </r>
       <r>   16.6872    0.0000 </r>
       <r>   17.3362    0.0000 </r>
       <r>   24.2244    0.0000 </r>
       <r>   25.1438    0.0000 </r>
      </set>
      <set comment="kpoint 116">
       <r>   -3.3778    1.0000 </r>
       <r>   -2.9320    1.0000 </r>
       <r>    0.8835    1.0000 </r>
       <r>    2.1751    1.0000 </r>
       <r>   17.2414    0.0000 </r>
       <r>   18.9492    0.0000 </r>
       <r>   23.7089    0.0000 </r>
       <r>   24.1999    0.0000 </r>
      </set>
      <set comment="kpoint 117">
       <r>   -5.4007    1.0000 </r>
       <r>   -1.1252    1.0000 </r>
       <r>    1.0024    1.0000 </r>
       <r>    2.8583    1.0000 </r>
       <r>   18.5872    0.0000 </r>
       <r>   19.7868    0.0000 </r>
       <r>   21.1974    0.0000 </r>
       <r>   24.4646    0.0000 </r>
      </set>
      <set comment="kpoint 118">
       <r>   -4.3506    1.0000 </r>
       <r>   -2.0266    1.0000 </r>
       <r>    0.7131    1.0000 </r>
       <r>    2.3836    1.0000 </r>
       <r>   19.2604    0.0000 </r>
       <r>   20.0769    0.0000 </r>
       <r>   21.8983    0.0000 </r>
       <r>   23.4377    0.0000 </r>
      </set>
      <set comment="kpoint 119">
       <r>   -3.7953    1.0000 </r>
       <r>   -2.3133    1.0000 </r>
       <r>    1.0083    1.0000 </r>
       <r>    1.6044    1.0000 </r>
       <r>   18.9211    0.0000 </r>
       <r>   19.4349    0.0000 </r>
       <r>   22.2339    0.0000 </r>
       <r>   23.6778    0.0000 </r>
      </set>
      <set comment="kpoint 120">
       <r>   -3.4480    1.0000 </r>
       <r>   -2.5286    1.0000 </r>
       <r>    0.6258    1.0000 </r>
       <r>    1.6788    1.0000 </r>
       <r>   19.4175    0.0000 </r>
       <r>   20.9116    0.0000 </r>
       <r>   21.9429    0.0000 </r>
       <r>   22.2216    0.0000 </r>
      </set>
     </set>
    </set>
   </array>
  </eigenvalues>
  <separator name="orbital magnetization" >
   <v name="MAGDIPOLOUT">      0.00000000      0.00000000      0.00000000</v>
  </separator>
  <dos>
   <i name="efermi">      9.19594012 </i>
   <total>
    <array>
     <dimension dim="1">gridpoints</dimension>
     <dimension dim="2">spin</dimension>
     <field>energy</field>
     <field>total</field>
     <field>integrated</field>
     <set>
      <set comment="spin 1">
       <r>   -14.0699     0.0000     0.0000 </r>
       <r>   -13.9297     0.0000     0.0000 </r>
       <r>   -13.7896     0.0000     0.0000 </r>
       <r>   -13.6495     0.0000     0.0000 </r>
       <r>   -13.5093     0.0000     0.0000 </r>
       <r>   -13.3692     0.0000     0.0000 </r>
       <r>   -13.2291     0.0000     0.0000 </r>
       <r>   -13.0889     0.0000     0.0000 </r>
       <r>   -12.9488     0.0000     0.0000 </r>
       <r>   -12.8087     0.0000     0.0000 </r>
       <r>   -12.6686     0.0000     0.0000 </r>
       <r>   -12.5284     0.0000     0.0000 </r>
       <r>   -12.3883     0.0000     0.0000 </r>
       <r>   -12.2482     0.0000     0.0000 </r>
       <r>   -12.1080     0.0047     0.0007 </r>
       <r>   -11.9679     0.0528     0.0081 </r>
       <r>   -11.8278     0.0362     0.0131 </r>
       <r>   -11.6877     0.1125     0.0289 </r>
       <r>   -11.5475     0.0478     0.0356 </r>
       <r>   -11.4074     0.0640     0.0446 </r>
       <r>   -11.2673     0.1612     0.0671 </r>
       <r>   -11.1271     0.1065     0.0821 </r>
       <r>   -10.9870     0.1282     0.1000 </r>
       <r>   -10.8469     0.0423     0.1059 </r>
       <r>   -10.7068     0.2741     0.1444 </r>
       <r>   -10.5666     0.1048     0.1590 </r>
       <r>   -10.4265     0.1513     0.1803 </r>
       <r>   -10.2864     0.1176     0.1967 </r>
       <r>   -10.1462     0.0867     0.2089 </r>
       <r>   -10.0061     0.2494     0.2438 </r>
       <r>    -9.8660     0.2131     0.2737 </r>
       <r>    -9.7259     0.2900     0.3143 </r>
       <r>    -9.5857     0.0220     0.3174 </r>
       <r>    -9.4456     0.2367     0.3506 </r>
       <r>    -9.3055     0.1470     0.3712 </r>
       <r>    -9.1653     0.3100     0.4146 </r>
       <r>    -9.0252     0.1275     0.4325 </r>
       <r>    -8.8851     0.2612     0.4691 </r>
       <r>    -8.7450     0.3450     0.5174 </r>
       <r>    -8.6048     0.1138     0.5334 </r>
       <r>    -8.4647     0.1769     0.5582 </r>
       <r>    -8.3246     0.1530     0.5796 </r>
       <r>    -8.1844     0.3670     0.6310 </r>
       <r>    -8.0443     0.2971     0.6727 </r>
       <r>    -7.9042     0.4156     0.7309 </r>
       <r>    -7.7640     0.0531     0.7384 </r>
       <r>    -7.6239     0.4395     0.7999 </r>
       <r>    -7.4838     0.2174     0.8304 </r>
       <r>    -7.3437     0.1858     0.8565 </r>
       <r>    -7.2035     0.1276     0.8743 </r>
       <r>    -7.0634     0.6082     0.9596 </r>
       <r>    -6.9233     0.2776     0.9985 </r>
       <r>    -6.7831     0.5199     1.0713 </r>
       <r>    -6.6430     0.1341     1.0901 </r>
       <r>    -6.5029     0.5257     1.1638 </r>
       <r>    -6.3628     0.3058     1.2066 </r>
       <r>    -6.2226     0.3837     1.2604 </r>
       <r>    -6.0825     0.0555     1.2682 </r>
       <r>    -5.9424     0.7560     1.3741 </r>
       <r>    -5.8022     0.3536     1.4236 </r>
       <r>    -5.6621     0.3706     1.4756 </r>
       <r>    -5.5220     0.1998     1.5036 </r>
       <r>    -5.3819     0.2990     1.5455 </r>
       <r>    -5.2417     0.4237     1.6048 </r>
       <r>    -5.1016     0.1638     1.6278 </r>
       <r>    -4.9615     0.1035     1.6423 </r>
       <r>    -4.8213     0.7101     1.7418 </r>
       <r>    -4.6812     0.1315     1.7603 </r>
       <r>    -4.5411     0.1293     1.7784 </r>
       <r>    -4.4010     0.1632     1.8012 </r>
       <r>    -4.2608     0.3209     1.8462 </r>
       <r>    -4.1207     0.2935     1.8873 </r>
       <r>    -3.9806     0.2804     1.9266 </r>
       <r>    -3.8404     0.0511     1.9338 </r>
       <r>    -3.7003     0.1788     1.9588 </r>
       <r>    -3.5602     0.1753     1.9834 </r>
       <r>    -3.4200     0.3226     2.0286 </r>
       <r>    -3.2799     0.4509     2.0918 </r>
       <r>    -3.1398     0.1953     2.1192 </r>
       <r>    -2.9997     0.0600     2.1276 </r>
       <r>    -2.8595     0.3241     2.1730 </r>
       <r>    -2.7194     0.3225     2.2182 </r>
       <r>    -2.5793     0.5322     2.2928 </r>
       <r>    -2.4391     0.5200     2.3656 </r>
       <r>    -2.2990     0.9274     2.4956 </r>
       <r>    -2.1589     0.3477     2.5443 </r>
       <r>    -2.0188     0.7794     2.6535 </r>
       <r>    -1.8786     0.2673     2.6910 </r>
       <r>    -1.7385     0.5257     2.7646 </r>
       <r>    -1.5984     0.3431     2.8127 </r>
       <r>    -1.4582     0.3420     2.8606 </r>
       <r>    -1.3181     0.5769     2.9415 </r>
       <r>    -1.1780     0.2415     2.9753 </r>
       <r>    -1.0379     0.4215     3.0344 </r>
       <r>    -0.8977     0.2688     3.0721 </r>
       <r>    -0.7576     0.0472     3.0787 </r>
       <r>    -0.6175     0.2069     3.1077 </r>
       <r>    -0.4773     0.6068     3.1927 </r>
       <r>    -0.3372     0.2342     3.2255 </r>
       <r>    -0.1971     0.1557     3.2474 </r>
       <r>    -0.0570     0.3410     3.2951 </r>
       <r>     0.0832     0.2734     3.3334 </r>
       <r>     0.2233     0.1701     3.3573 </r>
       <r>     0.3634     0.4083     3.4145 </r>
       <r>     0.5036     0.5313     3.4890 </r>
       <r>     0.6437     0.5780     3.5700 </r>
       <r>     0.7838     0.4317     3.6305 </r>
       <r>     0.9240     0.5140     3.7025 </r>
       <r>     1.0641     0.8277     3.8185 </r>
       <r>     1.2042     0.4776     3.8854 </r>
       <r>     1.3443     0.4047     3.9421 </r>
       <r>     1.4845     0.2350     3.9750 </r>
       <r>     1.6246     0.6173     4.0615 </r>
       <r>     1.7647     0.8705     4.1835 </r>
       <r>     1.9049     0.8133     4.2975 </r>
       <r>     2.0450     0.3025     4.3399 </r>
       <r>     2.1851     0.6482     4.4307 </r>
       <r>     2.3252     0.3213     4.4757 </r>
       <r>     2.4654     0.3447     4.5241 </r>
       <r>     2.6055     1.2542     4.6998 </r>
       <r>     2.7456     0.9703     4.8358 </r>
       <r>     2.8858     0.7008     4.9340 </r>
       <r>     3.0259     0.5202     5.0069 </r>
       <r>     3.1660     0.7732     5.1152 </r>
       <r>     3.3061     0.5240     5.1886 </r>
       <r>     3.4463     1.0051     5.3295 </r>
       <r>     3.5864     1.2997     5.5116 </r>
       <r>     3.7265     0.8796     5.6349 </r>
       <r>     3.8667     0.4772     5.7017 </r>
       <r>     4.0068     0.4056     5.7586 </r>
       <r>     4.1469     0.6834     5.8543 </r>
       <r>     4.2870     1.1305     6.0128 </r>
       <r>     4.4272     1.0047     6.1536 </r>
       <r>     4.5673     0.3736     6.2059 </r>
       <r>     4.7074     0.8553     6.3258 </r>
       <r>     4.8476     0.6459     6.4163 </r>
       <r>     4.9877     0.8225     6.5315 </r>
       <r>     5.1278     0.7097     6.6310 </r>
       <r>     5.2679     0.6509     6.7222 </r>
       <r>     5.4081     0.6725     6.8164 </r>
[...]
       </set>
       <set comment="band 5">
        <r>  0.0413  0.0104  0.2161  0.0183  0.0000  0.0000  0.0000  0.0000  0.0000 </r>
        <r>  0.0413  0.0104  0.2161  0.0183  0.0000  0.0000  0.0000  0.0000  0.0000 </r>
       </set>
       <set comment="band 6">
        <r>  0.0414  0.0719  0.0510  0.0848  0.0000  0.0000  0.0000  0.0000  0.0000 </r>
        <r>  0.0414  0.0719  0.0510  0.0848  0.0000  0.0000  0.0000  0.0000  0.0000 </r>
       </set>
       <set comment="band 7">
        <r>  0.1432  0.0841  0.0020  0.0624  0.0000  0.0000  0.0000  0.0000  0.0000 </r>
        <r>  0.1432  0.0841  0.0020  0.0624  0.0000  0.0000  0.0000  0.0000  0.0000 </r>
       </set>
       <set comment="band 8">
        <r>  0.0305  0.1134  0.0766  0.1583  0.0000  0.0000  0.0000  0.0000  0.0000 </r>
        <r>  0.0305  0.1134  0.0766  0.1583  0.0000  0.0000  0.0000  0.0000  0.0000 </r>
       </set>
      </set>
      <set comment="kpoint 111">
       <set comment="band 1">
        <r>  0.2407  0.0136  0.0036  0.0604  0.0000  0.0000  0.0000  0.0000  0.0000 </r>
        <r>  0.2407  0.0136  0.0036  0.0604  0.0000  0.0000  0.0000  0.0000  0.0000 </r>
       </set>
       <set comment="band 2">
        <r>  0.1950  0.0343  0.0221  0.0996  0.0000  0.0000  0.0000  0.0000  0.0000 </r>
        <r>  0.1950  0.0343  0.0221  0.0996  0.0000  0.0000  0.0000  0.0000  0.0000 </r>
       </set>
       <set comment="band 3">
        <r>  0.0170  0.0695  0.1398  0.0866  0.0000  0.0000  0.0000  0.0000  0.0000 </r>
        <r>  0.0170  0.0695  0.1398  0.0866  0.0000  0.0000  0.0000  0.0000  0.0000 </r>
       </set>
       <set comment="band 4">
        <r>  0.0012  0.1681  0.1299  0.0171  0.0000  0.0000  0.0000  0.0000  0.0000 </r>
        <r>  0.0012  0.1681  0.1299  0.0171  0.0000  0.0000  0.0000  0.0000  0.0000 </r>
       </set>
       <set comment="band 5">
        <r>  0.0792  0.0973  0.0326  0.0291  0.0000  0.0000  0.0000  0.0000  0.0000 </r>
        <r>  0.0792  0.0973  0.0326  0.0291  0.0000  0.0000  0.0000  0.0000  0.0000 </r>
       </set>
       <set comment="band 6">
        <r>  0.0865  0.0018  0.0299  0.0752  0.0000  0.0000  0.0000  0.0000  0.0000 </r>
        <r>  0.0865  0.0018  0.0299  0.0752  0.0000  0.0000  0.0000  0.0000  0.0000 </r>
       </set>
       <set comment="band 7">
        <r>  0.0555  0.1293  0.1376  0.0259  0.0000  0.0000  0.0000  0.0000  0.0000 </r>
        <r>  0.0555  0.1293  0.1376  0.0259  0.0000  0.0000  0.0000  0.0000  0.0000 </r>
       </set>
       <set comment="band 8">
        <r>  0.0137  0.1227  0.1940  0.0718  0.0000  0.0000  0.0000  0.0000  0.0000 </r>
        <r>  0.0137  0.1227  0.1940  0.0718  0.0000  0.0000  0.0000  0.0000  0.0000 </r>
       </set>
      </set>
      <set comment="kpoint 112">
       <set comment="band 1">
        <r>  0.2407  0.0169  0.0042  0.0662  0.0000  0.0000  0.0000  0.0000  0.0000 </r>
        <r>  0.2407  0.0169  0.0042  0.0662  0.0000  0.0000  0.0000  0.0000  0.0000 </r>
       </set>
       <set comment="band 2">
        <r>  0.2047  0.0288  0.0083  0.1037  0.0000  0.0000  0.0000  0.0000  0.0000 </r>
        <r>  0.2047  0.0288  0.0083  0.1037  0.0000  0.0000  0.0000  0.0000  0.0000 </r>
       </set>
       <set comment="band 3">
        <r>  0.0176  0.1735  0.0319  0.0769  0.0000  0.0000  0.0000  0.0000  0.0000 </r>
        <r>  0.0176  0.1735  0.0319  0.0769  0.0000  0.0000  0.0000  0.0000  0.0000 </r>
       </set>
       <set comment="band 4">
        <r>  0.0026  0.0508  0.2524  0.0078  0.0000  0.0000  0.0000  0.0000  0.0000 </r>
        <r>  0.0026  0.0508  0.2524  0.0078  0.0000  0.0000  0.0000  0.0000  0.0000 </r>
       </set>
       <set comment="band 5">
        <r>  0.0764  0.0786  0.0502  0.0229  0.0000  0.0000  0.0000  0.0000  0.0000 </r>
        <r>  0.0764  0.0786  0.0502  0.0229  0.0000  0.0000  0.0000  0.0000  0.0000 </r>
       </set>
       <set comment="band 6">
        <r>  0.0651  0.0481  0.0176  0.0938  0.0000  0.0000  0.0000  0.0000  0.0000 </r>
        <r>  0.0651  0.0481  0.0176  0.0938  0.0000  0.0000  0.0000  0.0000  0.0000 </r>
       </set>
       <set comment="band 7">
        <r>  0.0689  0.1052  0.1525  0.0151  0.0000  0.0000  0.0000  0.0000  0.0000 </r>
        <r>  0.0689  0.1052  0.1525  0.0151  0.0000  0.0000  0.0000  0.0000  0.0000 </r>
       </set>
       <set comment="band 8">
        <r>  0.0319  0.1166  0.1584  0.0873  0.0000  0.0000  0.0000  0.0000  0.0000 </r>
        <r>  0.0319  0.1166  0.1584  0.0873  0.0000  0.0000  0.0000  0.0000  0.0000 </r>
       </set>
      </set>
      <set comment="kpoint 113">
       <set comment="band 1">
        <r>  0.2571  0.0341  0.0065  0.0439  0.0000  0.0000  0.0000  0.0000  0.0000 </r>
        <r>  0.2571  0.0341  0.0065  0.0439  0.0000  0.0000  0.0000  0.0000  0.0000 </r>
       </set>
       <set comment="band 2">
        <r>  0.1932  0.0214  0.0028  0.1168  0.0000  0.0000  0.0000  0.0000  0.0000 </r>
        <r>  0.1932  0.0214  0.0028  0.1168  0.0000  0.0000  0.0000  0.0000  0.0000 </r>
       </set>
       <set comment="band 3">
        <r>  0.0147  0.1873  0.0060  0.0805  0.0000  0.0000  0.0000  0.0000  0.0000 </r>
        <r>  0.0147  0.1873  0.0060  0.0805  0.0000  0.0000  0.0000  0.0000  0.0000 </r>
       </set>
       <set comment="band 4">
        <r>  0.0059  0.0165  0.2842  0.0107  0.0000  0.0000  0.0000  0.0000  0.0000 </r>
        <r>  0.0059  0.0165  0.2842  0.0107  0.0000  0.0000  0.0000  0.0000  0.0000 </r>
       </set>
       <set comment="band 5">
        <r>  0.0708  0.0552  0.0541  0.0414  0.0000  0.0000  0.0000  0.0000  0.0000 </r>
        <r>  0.0708  0.0552  0.0541  0.0414  0.0000  0.0000  0.0000  0.0000  0.0000 </r>
       </set>
       <set comment="band 6">
        <r>  0.0297  0.0839  0.0586  0.0806  0.0000  0.0000  0.0000  0.0000  0.0000 </r>
        <r>  0.0297  0.0839  0.0586  0.0806  0.0000  0.0000  0.0000  0.0000  0.0000 </r>
       </set>
       <set comment="band 7">
        <r>  0.0827  0.0788  0.1606  0.0262  0.0000  0.0000  0.0000  0.0000  0.0000 </r>
        <r>  0.0827  0.0788  0.1606  0.0262  0.0000  0.0000  0.0000  0.0000  0.0000 </r>
       </set>
       <set comment="band 8">
        <r>  0.0676  0.1174  0.0672  0.1069  0.0000  0.0000  0.0000  0.0000  0.0000 </r>
        <r>  0.0676  0.1174  0.0672  0.1069  0.0000  0.0000  0.0000  0.0000  0.0000 </r>
       </set>
      </set>
      <set comment="kpoint 114">
       <set comment="band 1">
        <r>  0.2543  0.0433  0.0063  0.0314  0.0000  0.0000  0.0000  0.0000  0.0000 </r>
        <r>  0.2543  0.0433  0.0063  0.0314  0.0000  0.0000  0.0000  0.0000  0.0000 </r>
       </set>
       <set comment="band 2">
        <r>  0.1937  0.0639  0.0023  0.0799  0.0000  0.0000  0.0000  0.0000  0.0000 </r>
        <r>  0.1937  0.0639  0.0023  0.0799  0.0000  0.0000  0.0000  0.0000  0.0000 </r>
       </set>
       <set comment="band 3">
        <r>  0.0136  0.1379  0.0027  0.1309  0.0000  0.0000  0.0000  0.0000  0.0000 </r>
        <r>  0.0136  0.1379  0.0027  0.1309  0.0000  0.0000  0.0000  0.0000  0.0000 </r>
       </set>
       <set comment="band 4">
        <r>  0.0075  0.0076  0.2923  0.0151  0.0000  0.0000  0.0000  0.0000  0.0000 </r>
        <r>  0.0075  0.0076  0.2923  0.0151  0.0000  0.0000  0.0000  0.0000  0.0000 </r>
       </set>
       <set comment="band 5">
        <r>  0.0614  0.0487  0.0538  0.0619  0.0000  0.0000  0.0000  0.0000  0.0000 </r>
        <r>  0.0614  0.0487  0.0538  0.0619  0.0000  0.0000  0.0000  0.0000  0.0000 </r>
       </set>
       <set comment="band 6">
        <r>  0.0260  0.0057  0.2583  0.0103  0.0000  0.0000  0.0000  0.0000  0.0000 </r>
        <r>  0.0260  0.0057  0.2583  0.0103  0.0000  0.0000  0.0000  0.0000  0.0000 </r>
       </set>
       <set comment="band 7">
        <r>  0.1086  0.1325  0.0004  0.0870  0.0000  0.0000  0.0000  0.0000  0.0000 </r>
        <r>  0.1086  0.1325  0.0004  0.0870  0.0000  0.0000  0.0000  0.0000  0.0000 </r>
       </set>
       <set comment="band 8">
        <r>  0.0617  0.1418  0.0051  0.1401  0.0000  0.0000  0.0000  0.0000  0.0000 </r>
        <r>  0.0617  0.1418  0.0051  0.1401  0.0000  0.0000  0.0000  0.0000  0.0000 </r>
       </set>
      </set>
      <set comment="kpoint 115">
       <set comment="band 1">
        <r>  0.2302  0.0237  0.0040  0.0717  0.0000  0.0000  0.0000  0.0000  0.0000 </r>
        <r>  0.2302  0.0237  0.0040  0.0717  0.0000  0.0000  0.0000  0.0000  0.0000 </r>
       </set>
       <set comment="band 2">
        <r>  0.2180  0.0418  0.0077  0.0747  0.0000  0.0000  0.0000  0.0000  0.0000 </r>
        <r>  0.2180  0.0418  0.0077  0.0747  0.0000  0.0000  0.0000  0.0000  0.0000 </r>
       </set>
       <set comment="band 3">
        <r>  0.0104  0.0679  0.1413  0.0910  0.0000  0.0000  0.0000  0.0000  0.0000 </r>
        <r>  0.0104  0.0679  0.1413  0.0910  0.0000  0.0000  0.0000  0.0000  0.0000 </r>
       </set>
       <set comment="band 4">
        <r>  0.0024  0.1450  0.1404  0.0224  0.0000  0.0000  0.0000  0.0000  0.0000 </r>
        <r>  0.0024  0.1450  0.1404  0.0224  0.0000  0.0000  0.0000  0.0000  0.0000 </r>
       </set>
       <set comment="band 5">
        <r>  0.0867  0.0838  0.0313  0.0188  0.0000  0.0000  0.0000  0.0000  0.0000 </r>
        <r>  0.0867  0.0838  0.0313  0.0188  0.0000  0.0000  0.0000  0.0000  0.0000 </r>
       </set>
       <set comment="band 6">
        <r>  0.0889  0.0034  0.0302  0.0827  0.0000  0.0000  0.0000  0.0000  0.0000 </r>
        <r>  0.0889  0.0034  0.0302  0.0827  0.0000  0.0000  0.0000  0.0000  0.0000 </r>
       </set>
       <set comment="band 7">
        <r>  0.0380  0.1470  0.1557  0.0283  0.0000  0.0000  0.0000  0.0000  0.0000 </r>
        <r>  0.0380  0.1470  0.1557  0.0283  0.0000  0.0000  0.0000  0.0000  0.0000 </r>
       </set>
       <set comment="band 8">
        <r>  0.0228  0.0956  0.1819  0.0970  0.0000  0.0000  0.0000  0.0000  0.0000 </r>
        <r>  0.0228  0.0956  0.1819  0.0970  0.0000  0.0000  0.0000  0.0000  0.0000 </r>
       </set>
      </set>
      <set comment="kpoint 116">
       <set comment="band 1">
        <r>  0.2436  0.0342  0.0080  0.0571  0.0000  0.0000  0.0000  0.0000  0.0000 </r>
        <r>  0.2436  0.0342  0.0080  0.0571  0.0000  0.0000  0.0000  0.0000  0.0000 </r>
       </set>
       <set comment="band 2">
        <r>  0.2172  0.0450  0.0024  0.0724  0.0000  0.0000  0.0000  0.0000  0.0000 </r>
        <r>  0.2172  0.0450  0.0024  0.0724  0.0000  0.0000  0.0000  0.0000  0.0000 </r>
       </set>
       <set comment="band 3">
        <r>  0.0022  0.1761  0.0002  0.1125  0.0000  0.0000  0.0000  0.0000  0.0000 </r>
        <r>  0.0022  0.1761  0.0002  0.1125  0.0000  0.0000  0.0000  0.0000  0.0000 </r>
       </set>
       <set comment="band 4">
        <r>  0.0065  0.0071  0.2851  0.0141  0.0000  0.0000  0.0000  0.0000  0.0000 </r>
        <r>  0.0065  0.0071  0.2851  0.0141  0.0000  0.0000  0.0000  0.0000  0.0000 </r>
       </set>
       <set comment="band 5">
        <r>  0.0814  0.0310  0.0550  0.0481  0.0000  0.0000  0.0000  0.0000  0.0000 </r>
        <r>  0.0814  0.0310  0.0550  0.0481  0.0000  0.0000  0.0000  0.0000  0.0000 </r>
       </set>
       <set comment="band 6">
        <r>  0.0693  0.0837  0.0100  0.0736  0.0000  0.0000  0.0000  0.0000  0.0000 </r>
        <r>  0.0693  0.0837  0.0100  0.0736  0.0000  0.0000  0.0000  0.0000  0.0000 </r>
       </set>
       <set comment="band 7">
        <r>  0.0359  0.0082  0.2997  0.0161  0.0000  0.0000  0.0000  0.0000  0.0000 </r>
        <r>  0.0359  0.0082  0.2997  0.0161  0.0000  0.0000  0.0000  0.0000  0.0000 </r>
       </set>
       <set comment="band 8">
        <r>  0.0568  0.1965  0.0000  0.1122  0.0000  0.0000  0.0000  0.0000  0.0000 </r>
        <r>  0.0568  0.1965  0.0000  0.1122  0.0000  0.0000  0.0000  0.0000  0.0000 </r>
       </set>
      </set>
      <set comment="kpoint 117">
       <set comment="band 1">
        <r>  0.2453  0.0105  0.0082  0.0613  0.0000  0.0000  0.0000  0.0000  0.0000 </r>
        <r>  0.2453  0.0105  0.0082  0.0613  0.0000  0.0000  0.0000  0.0000  0.0000 </r>
       </set>
       <set comment="band 2">
        <r>  0.1949  0.0313  0.0430  0.0783  0.0000  0.0000  0.0000  0.0000  0.0000 </r>
        <r>  0.1949  0.0313  0.0430  0.0783  0.0000  0.0000  0.0000  0.0000  0.0000 </r>
       </set>
       <set comment="band 3">
        <r>  0.0207  0.0549  0.1228  0.0994  0.0000  0.0000  0.0000  0.0000  0.0000 </r>
        <r>  0.0207  0.0549  0.1228  0.0994  0.0000  0.0000  0.0000  0.0000  0.0000 </r>
       </set>
       <set comment="band 4">
        <r>  0.0058  0.1865  0.1006  0.0210  0.0000  0.0000  0.0000  0.0000  0.0000 </r>
        <r>  0.0058  0.1865  0.1006  0.0210  0.0000  0.0000  0.0000  0.0000  0.0000 </r>
       </set>
       <set comment="band 5">
        <r>  0.0549  0.1332  0.0557  0.0229  0.0000  0.0000  0.0000  0.0000  0.0000 </r>
        <r>  0.0549  0.1332  0.0557  0.0229  0.0000  0.0000  0.0000  0.0000  0.0000 </r>
       </set>
       <set comment="band 6">
        <r>  0.0007  0.0388  0.0946  0.0658  0.0000  0.0000  0.0000  0.0000  0.0000 </r>
        <r>  0.0007  0.0388  0.0946  0.0658  0.0000  0.0000  0.0000  0.0000  0.0000 </r>
       </set>
       <set comment="band 7">
        <r>  0.1576  0.0659  0.0569  0.0580  0.0000  0.0000  0.0000  0.0000  0.0000 </r>
        <r>  0.1576  0.0659  0.0569  0.0580  0.0000  0.0000  0.0000  0.0000  0.0000 </r>
       </set>
       <set comment="band 8">
        <r>  0.0347  0.0945  0.1754  0.0898  0.0000  0.0000  0.0000  0.0000  0.0000 </r>
        <r>  0.0347  0.0945  0.1754  0.0898  0.0000  0.0000  0.0000  0.0000  0.0000 </r>
       </set>
      </set>
      <set comment="kpoint 118">
       <set comment="band 1">
        <r>  0.2530  0.0201  0.0113  0.0532  0.0000  0.0000  0.0000  0.0000  0.0000 </r>
        <r>  0.2530  0.0201  0.0113  0.0532  0.0000  0.0000  0.0000  0.0000  0.0000 </r>
       </set>
       <set comment="band 2">
        <r>  0.1919  0.0257  0.0140  0.1055  0.0000  0.0000  0.0000  0.0000  0.0000 </r>
        <r>  0.1919  0.0257  0.0140  0.1055  0.0000  0.0000  0.0000  0.0000  0.0000 </r>
       </set>
       <set comment="band 3">
        <r>  0.0258  0.1051  0.0879  0.0771  0.0000  0.0000  0.0000  0.0000  0.0000 </r>
        <r>  0.0258  0.1051  0.0879  0.0771  0.0000  0.0000  0.0000  0.0000  0.0000 </r>
       </set>
       <set comment="band 4">
        <r>  0.0032  0.1215  0.1635  0.0195  0.0000  0.0000  0.0000  0.0000  0.0000 </r>
        <r>  0.0032  0.1215  0.1635  0.0195  0.0000  0.0000  0.0000  0.0000  0.0000 </r>
       </set>
       <set comment="band 5">
        <r>  0.0231  0.0989  0.0851  0.0218  0.0000  0.0000  0.0000  0.0000  0.0000 </r>
        <r>  0.0231  0.0989  0.0851  0.0218  0.0000  0.0000  0.0000  0.0000  0.0000 </r>
       </set>
       <set comment="band 6">
        <r>  0.0575  0.0625  0.1312  0.0200  0.0000  0.0000  0.0000  0.0000  0.0000 </r>
        <r>  0.0575  0.0625  0.1312  0.0200  0.0000  0.0000  0.0000  0.0000  0.0000 </r>
       </set>
       <set comment="band 7">
        <r>  0.1127  0.0884  0.0100  0.1136  0.0000  0.0000  0.0000  0.0000  0.0000 </r>
        <r>  0.1127  0.0884  0.0100  0.1136  0.0000  0.0000  0.0000  0.0000  0.0000 </r>
       </set>
       <set comment="band 8">
        <r>  0.0600  0.0654  0.1146  0.1125  0.0000  0.0000  0.0000  0.0000  0.0000 </r>
        <r>  0.0600  0.0654  0.1146  0.1125  0.0000  0.0000  0.0000  0.0000  0.0000 </r>
       </set>
      </set>
      <set comment="kpoint 119">
       <set comment="band 1">
        <r>  0.2403  0.0226  0.0106  0.0644  0.0000  0.0000  0.0000  0.0000  0.0000 </r>
        <r>  0.2403  0.0226  0.0106  0.0644  0.0000  0.0000  0.0000  0.0000  0.0000 </r>
       </set>
       <set comment="band 2">
        <r>  0.2269  0.0360  0.0217  0.0630  0.0000  0.0000  0.0000  0.0000  0.0000 </r>
        <r>  0.2269  0.0360  0.0217  0.0630  0.0000  0.0000  0.0000  0.0000  0.0000 </r>
       </set>
       <set comment="band 3">
        <r>  0.0083  0.0494  0.1232  0.1133  0.0000  0.0000  0.0000  0.0000  0.0000 </r>
        <r>  0.0083  0.0494  0.1232  0.1133  0.0000  0.0000  0.0000  0.0000  0.0000 </r>
       </set>
       <set comment="band 4">
        <r>  0.0000  0.1625  0.1161  0.0187  0.0000  0.0000  0.0000  0.0000  0.0000 </r>
        <r>  0.0000  0.1625  0.1161  0.0187  0.0000  0.0000  0.0000  0.0000  0.0000 </r>
       </set>
       <set comment="band 5">
        <r>  0.0596  0.1187  0.0565  0.0118  0.0000  0.0000  0.0000  0.0000  0.0000 </r>
        <r>  0.0596  0.1187  0.0565  0.0118  0.0000  0.0000  0.0000  0.0000  0.0000 </r>
       </set>
       <set comment="band 6">
        <r>  0.0483  0.0067  0.0621  0.1049  0.0000  0.0000  0.0000  0.0000  0.0000 </r>
        <r>  0.0483  0.0067  0.0621  0.1049  0.0000  0.0000  0.0000  0.0000  0.0000 </r>
       </set>
       <set comment="band 7">
        <r>  0.0872  0.1216  0.1030  0.0255  0.0000  0.0000  0.0000  0.0000  0.0000 </r>
        <r>  0.0872  0.1216  0.1030  0.0255  0.0000  0.0000  0.0000  0.0000  0.0000 </r>
       </set>
       <set comment="band 8">
        <r>  0.0528  0.0578  0.1348  0.1105  0.0000  0.0000  0.0000  0.0000  0.0000 </r>
        <r>  0.0528  0.0578  0.1348  0.1105  0.0000  0.0000  0.0000  0.0000  0.0000 </r>
       </set>
      </set>
      <set comment="kpoint 120">
       <set comment="band 1">
        <r>  0.2496  0.0375  0.0167  0.0414  0.0000  0.0000  0.0000  0.0000  0.0000 </r>
        <r>  0.2496  0.0375  0.0167  0.0414  0.0000  0.0000  0.0000  0.0000  0.0000 </r>
       </set>
       <set comment="band 2">
        <r>  0.2249  0.0468  0.0110  0.0621  0.0000  0.0000  0.0000  0.0000  0.0000 </r>
        <r>  0.2249  0.0468  0.0110  0.0621  0.0000  0.0000  0.0000  0.0000  0.0000 </r>
       </set>
       <set comment="band 3">
        <r>  0.0009  0.1575  0.0024  0.1241  0.0000  0.0000  0.0000  0.0000  0.0000 </r>
        <r>  0.0009  0.1575  0.0024  0.1241  0.0000  0.0000  0.0000  0.0000  0.0000 </r>
       </set>
       <set comment="band 4">
        <r>  0.0032  0.0173  0.2448  0.0339  0.0000  0.0000  0.0000  0.0000  0.0000 </r>
        <r>  0.0032  0.0173  0.2448  0.0339  0.0000  0.0000  0.0000  0.0000  0.0000 </r>
       </set>
       <set comment="band 5">
        <r>  0.0384  0.0502  0.0888  0.0537  0.0000  0.0000  0.0000  0.0000  0.0000 </r>
        <r>  0.0384  0.0502  0.0888  0.0537  0.0000  0.0000  0.0000  0.0000  0.0000 </r>
       </set>
       <set comment="band 6">
        <r>  0.0004  0.0485  0.1568  0.0294  0.0000  0.0000  0.0000  0.0000  0.0000 </r>
        <r>  0.0004  0.0485  0.1568  0.0294  0.0000  0.0000  0.0000  0.0000  0.0000 </r>
       </set>
       <set comment="band 7">
        <r>  0.1112  0.0758  0.0736  0.0927  0.0000  0.0000  0.0000  0.0000  0.0000 </r>
        <r>  0.1112  0.0758  0.0736  0.0927  0.0000  0.0000  0.0000  0.0000  0.0000 </r>
       </set>
       <set comment="band 8">
        <r>  0.1016  0.1312  0.0042  0.0934  0.0000  0.0000  0.0000  0.0000  0.0000 </r>
        <r>  0.1016  0.1312  0.0042  0.0934  0.0000  0.0000  0.0000  0.0000  0.0000 </r>
       </set>
      </set>
     </set>
    </set>
   </array>
  </projected>
 </calculation>
 <structure name="finalpos" >
  <crystal>
   <varray name="basis" >
    <v>       2.18050236       0.00000000       1.25891346 </v>
    <v>       0.72683412       2.05579703       1.25891346 </v>
    <v>       0.00000000       0.00000000       2.51782692 </v>
   </varray>
   <i name="volume">     11.28658789 </i>
   <varray name="rec_basis" >
    <v>       0.45860991      -0.16214311       0.00000000 </v>
    <v>       0.00000000       0.48642934       0.00000000 </v>
    <v>      -0.22930496      -0.16214311       0.39716789 </v>
   </varray>
  </crystal>
  <varray name="positions" >
   <v>       0.87500000       0.87500000       0.87500000 </v>
   <v>       0.12500000       0.12500000       0.12500000 </v>
  </varray>
 </structure>
</modeling>
