    2    2    1    1
  0.5451680E+02  0.2508995E-09  0.2508996E-09  0.2000000E-08  0.5000000E-15
  1.000000000000000E-004
  CAR 
 unknown system                          
      8     24      8
 
  0.0000000E+00  0.0000000E+00  0.0000000E+00  0.5102041E-02
    1      -22.099813
    2       -9.687022
    3       -5.808029
    4       -5.807980
    5        0.217699
    6        1.110647
    7        1.479417
    8        2.351524
 
  0.7142857E-01  0.1387779E-16  0.0000000E+00  0.3061224E-01
    1      -22.001883
    2       -9.555632
    3       -6.223558
    4       -5.999481
    5        0.386834
    6        1.266287
    7        1.642619
    8        2.506710
 
  0.1428571E+00  0.1387779E-16  0.0000000E+00  0.3061224E-01
    1      -21.712095
    2       -9.165778
    3       -7.313374
    4       -6.489813
    5        0.877537
    6        1.728266
    7        2.130374
    8        2.966082
 
  0.2142857E+00 -0.1387779E-16  0.0000000E+00  0.3061224E-01
    1      -21.243935
    2       -8.772041
    3       -8.532385
    4       -7.107219
    5        1.666745
    6        2.464397
    7        2.939647
    8        3.683174
 
  0.2857143E+00  0.0000000E+00  0.0000000E+00  0.3061224E-01
    1      -20.627841
    2      -10.333798
    3       -7.702397
    4       -7.689149
    5        2.733357
    6        3.088416
    7        4.065935
    8        4.226720
 
  0.3571429E+00  0.2775558E-16  0.0000000E+00  0.3061224E-01
    1      -19.930942
    2      -11.785064
    3       -8.179232
    4       -6.712601
    5        2.124878
    6        4.002062
    7        5.283371
    8        5.464478
 
  0.4285714E+00 -0.2775558E-16  0.0000000E+00  0.3061224E-01
    1      -19.304438
    2      -12.891738
    3       -8.483278
    4       -5.793945
    5        0.875642
    6        5.012469
    7        6.525292
    8        7.359272
 
  0.5000000E+00  0.0000000E+00  0.0000000E+00  0.1530612E-01
    1      -19.030111
    2      -13.330311
    3       -8.587347
    4       -5.368091
    5        0.315885
    6        5.230973
    7        7.986929
    8        8.424576
 
  0.7142857E-01  0.7142857E-01  0.0000000E+00  0.3061224E-01
    1      -21.808002
    2       -9.294957
    3       -6.936752
    4       -6.379920
    5        0.717012
    6        1.575294
    7        1.968179
    8        2.814274
 
  0.1428571E+00  0.7142857E-01  0.0000000E+00  0.6122449E-01
    1      -21.428542
    2       -8.782815
    3       -8.138243
    4       -7.007197
    5        1.359408
    6        2.178436
    7        2.617227
    8        3.409335
 
  0.2142857E+00  0.7142857E-01  0.0000000E+00  0.6122449E-01
    1      -20.884287
    2       -9.595772
    3       -8.042119
    4       -7.668102
    5        2.295916
    6        2.958682
    7        3.587032
    8        4.102004
 
  0.2857143E+00  0.7142857E-01  0.0000000E+00  0.6122449E-01
    1      -20.220588
    2      -11.077184
    3       -8.235381
    4       -7.123433
    5        2.724049
    6        3.497923
    7        4.724264
    8        4.870336
 
  0.3571429E+00  0.7142857E-01  0.0000000E+00  0.6122449E-01
    1      -19.538521
    2      -12.359412
    3       -8.641616
    4       -6.146492
    5        1.449484
    6        4.825542
    7        6.177888
    8        6.288090
 
  0.4285714E+00  0.7142857E-01  0.0000000E+00  0.6122449E-01
    1      -19.053695
    2      -13.159050
    3       -8.852125
    4       -5.410854
    5        0.477937
    6        5.576175
    7        7.412925
    8        8.470989
 
  0.1428571E+00  0.1428571E+00  0.0000000E+00  0.3061224E-01
    1      -20.971569
    2       -9.207459
    3       -8.161804
    4       -7.810700
    5        2.154161
    6        2.858853
    7        3.427837
    8        4.034556
 
  0.2142857E+00  0.1428571E+00  0.0000000E+00  0.6122449E-01
    1      -20.372984
    2      -10.451795
    3       -8.582826
    4       -7.337741
    5        3.047395
    6        3.244166
    7        4.499992
    8        4.559550
 
  0.2857143E+00  0.1428571E+00  0.0000000E+00  0.6122449E-01
    1      -19.701250
    2      -11.704840
    3       -9.160443
    4       -6.388357
    5        1.987405
    6        4.595134
    7        5.715923
    8        6.004235
 
  0.3571429E+00  0.1428571E+00  0.0000000E+00  0.6122449E-01
    1      -19.104933
    2      -12.697521
    3       -9.510220
    4       -5.502177
    5        0.861061
    6        6.035009
    7        7.333953
    8        7.471440
 
  0.4285714E+00  0.1428571E+00  0.0000000E+00  0.3061224E-01
    1      -18.847242
    2      -13.094651
    3       -9.627162
    4       -5.094724
    5        0.356238
    6        6.671749
    7        8.401724
    8        9.020763
 
  0.2142857E+00  0.2142857E+00  0.0000000E+00  0.3061224E-01
    1      -19.759093
    2      -11.319483
    3       -9.520829
    4       -6.473751
    5        2.215704
    6        4.487860
    7        5.563078
    8        5.853631
 
  0.2857143E+00  0.2142857E+00  0.0000000E+00  0.6122449E-01
    1      -19.144363
    2      -12.157393
    3      -10.196317
    4       -5.571193
    5        1.194194
    6        5.981503
    7        6.991289
    8        7.459795
 
  0.3571429E+00  0.2142857E+00  0.0000000E+00  0.6122449E-01
    1      -18.722598
    2      -12.728396
    3      -10.524275
    4       -4.908061
    5        0.446550
    6        7.500958
    7        8.213843
    8        8.841512
 
  0.2857143E+00  0.2857143E+00  0.0000000E+00  0.3061224E-01
    1      -18.682832
    2      -12.402487
    3      -11.042628
    4       -4.850363
    5        0.525089
    6        7.554514
    7        7.939613
    8        9.197985
 
  0.3571429E+00  0.2857143E+00  0.0000000E+00  0.3061224E-01
    1      -18.496185
    2      -12.464031
    3      -11.388539
    4       -4.538585
    5        0.239131
    6        7.975619
    7        8.640575
    8        9.719924
