PROCAR lm decomposed
# of k-points:   24         # of bands:   8         # of ions:   2

 k-point    1 :    0.00000000 0.00000000 0.00000000     weight = 0.00510204

band   1 # energy  -22.09981298 # occ.  2.00000000
 
ion      s     py     pz     px    dxy    dyz    dz2    dxz    dx2    tot
  1  0.269  0.000  0.000  0.000  0.000  0.000  0.000  0.000  0.000  0.269
  2  0.507  0.000  0.000  0.000  0.000  0.000  0.000  0.000  0.000  0.507
tot  0.776  0.000  0.000  0.000  0.000  0.000  0.000  0.000  0.000  0.776
 
band   2 # energy   -9.68702221 # occ.  2.00000000
 
ion      s     py     pz     px    dxy    dyz    dz2    dxz    dx2    tot
  1  0.000  0.000  0.194  0.000  0.000  0.000  0.000  0.000  0.000  0.194
  2  0.000  0.000  0.320  0.000  0.000  0.000  0.000  0.000  0.000  0.320
tot  0.000  0.000  0.514  0.000  0.000  0.000  0.000  0.000  0.000  0.514
 
band   3 # energy   -5.80802877 # occ.  2.00000000
 
ion      s     py     pz     px    dxy    dyz    dz2    dxz    dx2    tot
  1  0.000  0.066  0.000  0.207  0.000  0.000  0.000  0.000  0.000  0.273
  2  0.000  0.152  0.000  0.478  0.000  0.000  0.000  0.000  0.000  0.630
tot  0.000  0.218  0.000  0.685  0.000  0.000  0.000  0.000  0.000  0.903
 
band   4 # energy   -5.80797995 # occ.  2.00000000
 
ion      s     py     pz     px    dxy    dyz    dz2    dxz    dx2    tot
  1  0.000  0.207  0.000  0.066  0.000  0.000  0.000  0.000  0.000  0.273
  2  0.000  0.478  0.000  0.152  0.000  0.000  0.000  0.000  0.000  0.630
tot  0.000  0.685  0.000  0.218  0.000  0.000  0.000  0.000  0.000  0.903
 
band   5 # energy    0.21769950 # occ.  0.00000000
 
ion      s     py     pz     px    dxy    dyz    dz2    dxz    dx2    tot
  1  0.000  0.000  0.000  0.000  0.000  0.000  0.000  0.000  0.000  0.000
  2  0.041  0.000  0.000  0.000  0.000  0.000  0.000  0.000  0.000  0.041
tot  0.041  0.000  0.000  0.000  0.000  0.000  0.000  0.000  0.000  0.041
 
band   6 # energy    1.11064721 # occ.  0.00000000
 
ion      s     py     pz     px    dxy    dyz    dz2    dxz    dx2    tot
  1  0.000  0.000  0.003  0.000  0.000  0.000  0.000  0.000  0.000  0.003
  2  0.000  0.000  0.030  0.000  0.000  0.000  0.000  0.000  0.000  0.030
tot  0.000  0.000  0.033  0.000  0.000  0.000  0.000  0.000  0.000  0.033
 
band   7 # energy    1.47941745 # occ.  0.00000000
 
ion      s     py     pz     px    dxy    dyz    dz2    dxz    dx2    tot
  1  0.000  0.000  0.000  0.000  0.000  0.000  0.000  0.000  0.000  0.000
  2  0.005  0.000  0.000  0.000  0.000  0.000  0.000  0.000  0.000  0.005
tot  0.005  0.000  0.000  0.000  0.000  0.000  0.000  0.000  0.000  0.005
 
band   8 # energy    2.35152381 # occ.  0.00000000
 
ion      s     py     pz     px    dxy    dyz    dz2    dxz    dx2    tot
  1  0.000  0.000  0.001  0.000  0.000  0.000  0.000  0.000  0.000  0.001
  2  0.000  0.000  0.027  0.000  0.000  0.000  0.000  0.000  0.000  0.027
tot  0.000  0.000  0.028  0.000  0.000  0.000  0.000  0.000  0.000  0.028
 

 k-point    2 :    0.07142857 0.00000000 0.00000000     weight = 0.03061224

band   1 # energy  -22.00188272 # occ.  2.00000000
 
ion      s     py     pz     px    dxy    dyz    dz2    dxz    dx2    tot
  1  0.263  0.001  0.000  0.004  0.000  0.000  0.000  0.000  0.000  0.269
  2  0.508  0.000  0.000  0.001  0.000  0.000  0.000  0.000  0.000  0.509
tot  0.772  0.002  0.000  0.005  0.000  0.000  0.000  0.000  0.000  0.778
 
band   2 # energy   -9.55563234 # occ.  2.00000000
 
ion      s     py     pz     px    dxy    dyz    dz2    dxz    dx2    tot
  1  0.000  0.000  0.193  0.000  0.000  0.000  0.000  0.000  0.000  0.193
  2  0.000  0.000  0.322  0.000  0.000  0.000  0.000  0.000  0.000  0.322
tot  0.000  0.000  0.515  0.000  0.000  0.000  0.000  0.000  0.000  0.515
 
band   3 # energy   -6.22355833 # occ.  2.00000000
 
ion      s     py     pz     px    dxy    dyz    dz2    dxz    dx2    tot
  1  0.016  0.066  0.000  0.198  0.000  0.000  0.000  0.000  0.000  0.280
  2  0.012  0.151  0.000  0.452  0.000  0.000  0.000  0.000  0.000  0.614
tot  0.028  0.217  0.000  0.650  0.000  0.000  0.000  0.000  0.000  0.894
 
band   4 # energy   -5.99948057 # occ.  2.00000000
 
ion      s     py     pz     px    dxy    dyz    dz2    dxz    dx2    tot
  1  0.000  0.211  0.000  0.070  0.000  0.000  0.000  0.000  0.000  0.282
  2  0.000  0.465  0.000  0.155  0.000  0.000  0.000  0.000  0.000  0.620
tot  0.000  0.676  0.000  0.225  0.000  0.000  0.000  0.000  0.000  0.902
 
band   5 # energy    0.38683359 # occ.  0.00000000
 
ion      s     py     pz     px    dxy    dyz    dz2    dxz    dx2    tot
  1  0.000  0.000  0.000  0.000  0.000  0.000  0.000  0.000  0.000  0.000
  2  0.038  0.001  0.000  0.002  0.000  0.000  0.000  0.000  0.000  0.041
tot  0.038  0.001  0.000  0.003  0.000  0.000  0.000  0.000  0.000  0.041
 
band   6 # energy    1.26628735 # occ.  0.00000000
 
ion      s     py     pz     px    dxy    dyz    dz2    dxz    dx2    tot
  1  0.000  0.000  0.002  0.000  0.000  0.000  0.000  0.000  0.000  0.002
  2  0.000  0.000  0.032  0.000  0.000  0.000  0.000  0.000  0.000  0.032
tot  0.000  0.000  0.034  0.000  0.000  0.000  0.000  0.000  0.000  0.034
 
band   7 # energy    1.64261907 # occ.  0.00000000
 
ion      s     py     pz     px    dxy    dyz    dz2    dxz    dx2    tot
  1  0.000  0.000  0.000  0.000  0.000  0.000  0.000  0.000  0.000  0.000
  2  0.004  0.000  0.000  0.000  0.000  0.000  0.000  0.000  0.000  0.005
tot  0.004  0.000  0.000  0.000  0.000  0.000  0.000  0.000  0.000  0.005
 
band   8 # energy    2.50670984 # occ.  0.00000000
 
ion      s     py     pz     px    dxy    dyz    dz2    dxz    dx2    tot
  1  0.000  0.000  0.001  0.000  0.000  0.000  0.000  0.000  0.000  0.001
  2  0.000  0.000  0.029  0.000  0.000  0.000  0.000  0.000  0.000  0.029
tot  0.000  0.000  0.029  0.000  0.000  0.000  0.000  0.000  0.000  0.029
 

 k-point    3 :    0.14285714 0.00000000 0.00000000     weight = 0.03061224

band   1 # energy  -21.71209522 # occ.  2.00000000
 
ion      s     py     pz     px    dxy    dyz    dz2    dxz    dx2    tot
  1  0.247  0.005  0.000  0.015  0.000  0.000  0.000  0.000  0.000  0.267
  2  0.512  0.001  0.000  0.003  0.000  0.000  0.000  0.000  0.000  0.516
tot  0.759  0.006  0.000  0.019  0.000  0.000  0.000  0.000  0.000  0.784
 
band   2 # energy   -9.16577779 # occ.  2.00000000
 
ion      s     py     pz     px    dxy    dyz    dz2    dxz    dx2    tot
  1  0.000  0.000  0.188  0.000  0.000  0.000  0.000  0.000  0.000  0.188
  2  0.000  0.000  0.330  0.000  0.000  0.000  0.000  0.000  0.000  0.330
tot  0.000  0.000  0.518  0.000  0.000  0.000  0.000  0.000  0.000  0.518
 
band   3 # energy   -7.31337425 # occ.  2.00000000
 
ion      s     py     pz     px    dxy    dyz    dz2    dxz    dx2    tot
  1  0.056  0.061  0.000  0.182  0.000  0.000  0.000  0.000  0.000  0.298
  2  0.035  0.136  0.000  0.407  0.000  0.000  0.000  0.000  0.000  0.578
tot  0.091  0.196  0.000  0.588  0.000  0.000  0.000  0.000  0.000  0.875
 
band   4 # energy   -6.48981289 # occ.  2.00000000
 
ion      s     py     pz     px    dxy    dyz    dz2    dxz    dx2    tot
  1  0.000  0.226  0.000  0.075  0.000  0.000  0.000  0.000  0.000  0.302
  2  0.000  0.448  0.000  0.149  0.000  0.000  0.000  0.000  0.000  0.598
tot  0.000  0.675  0.000  0.225  0.000  0.000  0.000  0.000  0.000  0.900
 
band   5 # energy    0.87753651 # occ.  0.00000000
 
ion      s     py     pz     px    dxy    dyz    dz2    dxz    dx2    tot
  1  0.000  0.000  0.000  0.001  0.000  0.000  0.000  0.000  0.000  0.001
  2  0.033  0.002  0.000  0.006  0.000  0.000  0.000  0.000  0.000  0.041
tot  0.033  0.002  0.000  0.007  0.000  0.000  0.000  0.000  0.000  0.042
 
band   6 # energy    1.72826563 # occ.  0.00000000
 
ion      s     py     pz     px    dxy    dyz    dz2    dxz    dx2    tot
  1  0.000  0.000  0.001  0.000  0.000  0.000  0.000  0.000  0.000  0.001
  2  0.000  0.000  0.038  0.000  0.000  0.000  0.000  0.000  0.000  0.038
tot  0.000  0.000  0.039  0.000  0.000  0.000  0.000  0.000  0.000  0.039
 
band   7 # energy    2.13037445 # occ.  0.00000000
 
ion      s     py     pz     px    dxy    dyz    dz2    dxz    dx2    tot
  1  0.000  0.000  0.000  0.000  0.000  0.000  0.000  0.000  0.000  0.000
  2  0.004  0.000  0.000  0.001  0.000  0.000  0.000  0.000  0.000  0.005
tot  0.004  0.000  0.000  0.001  0.000  0.000  0.000  0.000  0.000  0.005
 
band   8 # energy    2.96608201 # occ.  0.00000000
 
ion      s     py     pz     px    dxy    dyz    dz2    dxz    dx2    tot
  1  0.000  0.000  0.000  0.000  0.000  0.000  0.000  0.000  0.000  0.000
  2  0.000  0.000  0.035  0.000  0.000  0.000  0.000  0.000  0.000  0.035
tot  0.000  0.000  0.035  0.000  0.000  0.000  0.000  0.000  0.000  0.035
 

 k-point    4 :    0.21428571-0.00000000 0.00000000     weight = 0.03061224

band   1 # energy  -21.24393524 # occ.  2.00000000
 
ion      s     py     pz     px    dxy    dyz    dz2    dxz    dx2    tot
  1  0.219  0.011  0.000  0.034  0.000  0.000  0.000  0.000  0.000  0.264
  2  0.519  0.002  0.000  0.007  0.000  0.000  0.000  0.000  0.000  0.528
tot  0.738  0.014  0.000  0.041  0.000  0.000  0.000  0.000  0.000  0.793
 
band   2 # energy   -8.77204120 # occ.  2.00000000
 
ion      s     py     pz     px    dxy    dyz    dz2    dxz    dx2    tot
  1  0.106  0.053  0.000  0.159  0.000  0.000  0.000  0.000  0.000  0.318
  2  0.056  0.120  0.000  0.360  0.000  0.000  0.000  0.000  0.000  0.536
tot  0.162  0.173  0.000  0.519  0.000  0.000  0.000  0.000  0.000  0.854
 
band   3 # energy   -8.53238537 # occ.  2.00000000
 
ion      s     py     pz     px    dxy    dyz    dz2    dxz    dx2    tot
  1  0.000  0.000  0.179  0.000  0.000  0.000  0.000  0.000  0.000  0.179
  2  0.000  0.000  0.346  0.000  0.000  0.000  0.000  0.000  0.000  0.346
tot  0.000  0.000  0.525  0.000  0.000  0.000  0.000  0.000  0.000  0.525
 
band   4 # energy   -7.10721915 # occ.  2.00000000
 
ion      s     py     pz     px    dxy    dyz    dz2    dxz    dx2    tot
  1  0.000  0.243  0.000  0.081  0.000  0.000  0.000  0.000  0.000  0.324
  2  0.000  0.431  0.000  0.144  0.000  0.000  0.000  0.000  0.000  0.575
tot  0.000  0.674  0.000  0.225  0.000  0.000  0.000  0.000  0.000  0.899
 
band   5 # energy    1.66674519 # occ.  0.00000000
 
ion      s     py     pz     px    dxy    dyz    dz2    dxz    dx2    tot
  1  0.000  0.001  0.000  0.002  0.000  0.000  0.000  0.000  0.000  0.003
  2  0.031  0.003  0.000  0.009  0.000  0.000  0.000  0.000  0.000  0.042
tot  0.031  0.004  0.000  0.011  0.000  0.000  0.000  0.000  0.000  0.045
 
band   6 # energy    2.46439665 # occ.  0.00000000
 
ion      s     py     pz     px    dxy    dyz    dz2    dxz    dx2    tot
  1  0.000  0.000  0.000  0.000  0.000  0.000  0.000  0.000  0.000  0.000
  2  0.000  0.000  0.062  0.000  0.000  0.000  0.000  0.000  0.000  0.062
tot  0.000  0.000  0.062  0.000  0.000  0.000  0.000  0.000  0.000  0.062
 
band   7 # energy    2.93964679 # occ.  0.00000000
 
ion      s     py     pz     px    dxy    dyz    dz2    dxz    dx2    tot
  1  0.000  0.000  0.000  0.000  0.000  0.000  0.000  0.000  0.000  0.001
  2  0.004  0.000  0.000  0.001  0.000  0.000  0.000  0.000  0.000  0.005
tot  0.004  0.000  0.000  0.001  0.000  0.000  0.000  0.000  0.000  0.005
 
band   8 # energy    3.68317354 # occ.  0.00000000
 
ion      s     py     pz     px    dxy    dyz    dz2    dxz    dx2    tot
  1  0.000  0.000  0.006  0.000  0.000  0.000  0.000  0.000  0.000  0.006
  2  0.000  0.000  0.060  0.000  0.000  0.000  0.000  0.000  0.000  0.060
tot  0.000  0.000  0.066  0.000  0.000  0.000  0.000  0.000  0.000  0.066
 

 k-point    5 :    0.28571429 0.00000000 0.00000000     weight = 0.03061224

band   1 # energy  -20.62784110 # occ.  2.00000000
 
ion      s     py     pz     px    dxy    dyz    dz2    dxz    dx2    tot
  1  0.179  0.020  0.000  0.060  0.000  0.000  0.000  0.000  0.000  0.259
  2  0.534  0.003  0.000  0.010  0.000  0.000  0.000  0.000  0.000  0.547
tot  0.713  0.023  0.000  0.070  0.000  0.000  0.000  0.000  0.000  0.806
 
band   2 # energy  -10.33379810 # occ.  2.00000000
 
ion      s     py     pz     px    dxy    dyz    dz2    dxz    dx2    tot
  1  0.164  0.044  0.000  0.131  0.000  0.000  0.000  0.000  0.000  0.339
  2  0.064  0.107  0.000  0.322  0.000  0.000  0.000  0.000  0.000  0.494
tot  0.228  0.151  0.000  0.454  0.000  0.000  0.000  0.000  0.000  0.833
 
band   3 # energy   -7.70239690 # occ.  2.00000000
 
ion      s     py     pz     px    dxy    dyz    dz2    dxz    dx2    tot
  1  0.000  0.258  0.000  0.086  0.000  0.000  0.000  0.000  0.000  0.343
  2  0.000  0.418  0.000  0.139  0.000  0.000  0.000  0.000  0.000  0.557
tot  0.000  0.676  0.000  0.225  0.000  0.000  0.000  0.000  0.000  0.901
 
band   4 # energy   -7.68914910 # occ.  2.00000000
 
ion      s     py     pz     px    dxy    dyz    dz2    dxz    dx2    tot
  1  0.000  0.000  0.164  0.000  0.000  0.000  0.000  0.000  0.000  0.164
  2  0.000  0.000  0.372  0.000  0.000  0.000  0.000  0.000  0.000  0.372
tot  0.000  0.000  0.536  0.000  0.000  0.000  0.000  0.000  0.000  0.536
 
band   5 # energy    2.73335691 # occ.  0.00000000
 
ion      s     py     pz     px    dxy    dyz    dz2    dxz    dx2    tot
  1  0.002  0.001  0.000  0.004  0.000  0.000  0.000  0.000  0.000  0.008
  2  0.034  0.004  0.000  0.011  0.000  0.000  0.000  0.000  0.000  0.049
tot  0.036  0.005  0.000  0.016  0.000  0.000  0.000  0.000  0.000  0.057
 
band   6 # energy    3.08841608 # occ.  0.00000000
 
ion      s     py     pz     px    dxy    dyz    dz2    dxz    dx2    tot
  1  0.000  0.000  0.089  0.000  0.000  0.000  0.000  0.000  0.000  0.089
  2  0.000  0.000  0.211  0.000  0.000  0.000  0.000  0.000  0.000  0.211
tot  0.000  0.000  0.300  0.000  0.000  0.000  0.000  0.000  0.000  0.300
 
band   7 # energy    4.06593499 # occ.  0.00000000
 
ion      s     py     pz     px    dxy    dyz    dz2    dxz    dx2    tot
  1  0.001  0.000  0.000  0.001  0.000  0.000  0.000  0.000  0.000  0.002
  2  0.004  0.000  0.000  0.001  0.000  0.000  0.000  0.000  0.000  0.006
tot  0.005  0.001  0.000  0.002  0.000  0.000  0.000  0.000  0.000  0.008
 
band   8 # energy    4.22671994 # occ.  0.00000000
 
ion      s     py     pz     px    dxy    dyz    dz2    dxz    dx2    tot
  1  0.000  0.000  0.114  0.000  0.000  0.000  0.000  0.000  0.000  0.114
  2  0.000  0.000  0.071  0.000  0.000  0.000  0.000  0.000  0.000  0.071
tot  0.000  0.000  0.184  0.000  0.000  0.000  0.000  0.000  0.000  0.184
 

 k-point    6 :    0.35714286 0.00000000 0.00000000     weight = 0.03061224

band   1 # energy  -19.93094175 # occ.  2.00000000
 
ion      s     py     pz     px    dxy    dyz    dz2    dxz    dx2    tot
  1  0.126  0.031  0.000  0.092  0.000  0.000  0.000  0.000  0.000  0.248
  2  0.560  0.003  0.000  0.010  0.000  0.000  0.000  0.000  0.000  0.574
tot  0.686  0.034  0.000  0.102  0.000  0.000  0.000  0.000  0.000  0.822
 
band   2 # energy  -11.78506385 # occ.  2.00000000
 
ion      s     py     pz     px    dxy    dyz    dz2    dxz    dx2    tot
  1  0.229  0.033  0.000  0.098  0.000  0.000  0.000  0.000  0.000  0.361
  2  0.053  0.099  0.000  0.298  0.000  0.000  0.000  0.000  0.000  0.451
tot  0.283  0.132  0.000  0.396  0.000  0.000  0.000  0.000  0.000  0.811
 
band   3 # energy   -8.17923197 # occ.  2.00000000
 
ion      s     py     pz     px    dxy    dyz    dz2    dxz    dx2    tot
  1  0.000  0.268  0.000  0.089  0.000  0.000  0.000  0.000  0.000  0.358
  2  0.000  0.409  0.000  0.136  0.000  0.000  0.000  0.000  0.000  0.546
tot  0.000  0.677  0.000  0.226  0.000  0.000  0.000  0.000  0.000  0.903
 
band   4 # energy   -6.71260062 # occ.  2.00000000
 
ion      s     py     pz     px    dxy    dyz    dz2    dxz    dx2    tot
  1  0.000  0.000  0.139  0.000  0.000  0.000  0.000  0.000  0.000  0.139
  2  0.000  0.000  0.415  0.000  0.000  0.000  0.000  0.000  0.000  0.415
tot  0.000  0.000  0.554  0.000  0.000  0.000  0.000  0.000  0.000  0.554
 
band   5 # energy    2.12487819 # occ.  0.00000000
 
ion      s     py     pz     px    dxy    dyz    dz2    dxz    dx2    tot
  1  0.000  0.000  0.293  0.000  0.000  0.000  0.000  0.000  0.000  0.293
  2  0.000  0.000  0.211  0.000  0.000  0.000  0.000  0.000  0.000  0.211
tot  0.000  0.000  0.504  0.000  0.000  0.000  0.000  0.000  0.000  0.504
 
band   6 # energy    4.00206179 # occ.  0.00000000
 
ion      s     py     pz     px    dxy    dyz    dz2    dxz    dx2    tot
  1  0.020  0.004  0.000  0.013  0.000  0.000  0.000  0.000  0.000  0.037
  2  0.052  0.005  0.000  0.014  0.000  0.000  0.000  0.000  0.000  0.071
tot  0.072  0.009  0.000  0.027  0.000  0.000  0.000  0.000  0.000  0.108
 
band   7 # energy    5.28337122 # occ.  0.00000000
 
ion      s     py     pz     px    dxy    dyz    dz2    dxz    dx2    tot
  1  0.000  0.000  0.040  0.000  0.000  0.000  0.000  0.000  0.000  0.040
  2  0.000  0.000  0.003  0.000  0.000  0.000  0.000  0.000  0.000  0.003
tot  0.000  0.000  0.042  0.000  0.000  0.000  0.000  0.000  0.000  0.042
 
band   8 # energy    5.46447799 # occ.  0.00000000
 
ion      s     py     pz     px    dxy    dyz    dz2    dxz    dx2    tot
  1  0.021  0.003  0.000  0.010  0.000  0.000  0.000  0.000  0.000  0.035
  2  0.017  0.000  0.000  0.001  0.000  0.000  0.000  0.000  0.000  0.019
tot  0.038  0.004  0.000  0.011  0.000  0.000  0.000  0.000  0.000  0.053
 

 k-point    7 :    0.42857143-0.00000000 0.00000000     weight = 0.03061224

band   1 # energy  -19.30443785 # occ.  2.00000000
 
ion      s     py     pz     px    dxy    dyz    dz2    dxz    dx2    tot
  1  0.066  0.042  0.000  0.126  0.000  0.000  0.000  0.000  0.000  0.233
  2  0.600  0.002  0.000  0.005  0.000  0.000  0.000  0.000  0.000  0.607
tot  0.665  0.044  0.000  0.131  0.000  0.000  0.000  0.000  0.000  0.840
 
band   2 # energy  -12.89173779 # occ.  2.00000000
 
ion      s     py     pz     px    dxy    dyz    dz2    dxz    dx2    tot
  1  0.296  0.021  0.000  0.064  0.000  0.000  0.000  0.000  0.000  0.382
  2  0.024  0.096  0.000  0.289  0.000  0.000  0.000  0.000  0.000  0.409
tot  0.320  0.118  0.000  0.353  0.000  0.000  0.000  0.000  0.000  0.791
 
band   3 # energy   -8.48327765 # occ.  2.00000000
 
ion      s     py     pz     px    dxy    dyz    dz2    dxz    dx2    tot
  1  0.000  0.275  0.000  0.092  0.000  0.000  0.000  0.000  0.000  0.366
  2  0.000  0.404  0.000  0.135  0.000  0.000  0.000  0.000  0.000  0.539
tot  0.000  0.679  0.000  0.226  0.000  0.000  0.000  0.000  0.000  0.905
 
band   4 # energy   -5.79394456 # occ.  2.00000000
 
ion      s     py     pz     px    dxy    dyz    dz2    dxz    dx2    tot
  1  0.000  0.000  0.103  0.000  0.000  0.000  0.000  0.000  0.000  0.103
  2  0.000  0.000  0.478  0.000  0.000  0.000  0.000  0.000  0.000  0.478
tot  0.000  0.000  0.580  0.000  0.000  0.000  0.000  0.000  0.000  0.580
 
band   5 # energy    0.87564205 # occ.  0.00000000
 
ion      s     py     pz     px    dxy    dyz    dz2    dxz    dx2    tot
  1  0.000  0.000  0.362  0.000  0.000  0.000  0.000  0.000  0.000  0.362
  2  0.000  0.000  0.116  0.000  0.000  0.000  0.000  0.000  0.000  0.116
tot  0.000  0.000  0.478  0.000  0.000  0.000  0.000  0.000  0.000  0.478
 
band   6 # energy    5.01246948 # occ.  0.00000000
 
ion      s     py     pz     px    dxy    dyz    dz2    dxz    dx2    tot
  1  0.136  0.013  0.000  0.039  0.000  0.000  0.000  0.000  0.000  0.188
  2  0.116  0.005  0.000  0.014  0.000  0.000  0.000  0.000  0.000  0.135
tot  0.252  0.018  0.000  0.053  0.000  0.000  0.000  0.000  0.000  0.322
 
band   7 # energy    6.52529188 # occ.  0.00000000
 
ion      s     py     pz     px    dxy    dyz    dz2    dxz    dx2    tot
  1  0.084  0.008  0.000  0.025  0.000  0.000  0.000  0.000  0.000  0.117
  2  0.023  0.004  0.000  0.012  0.000  0.000  0.000  0.000  0.000  0.039
tot  0.107  0.012  0.000  0.037  0.000  0.000  0.000  0.000  0.000  0.156
 
band   8 # energy    7.35927172 # occ.  0.00000000
 
ion      s     py     pz     px    dxy    dyz    dz2    dxz    dx2    tot
  1  0.006  0.001  0.000  0.002  0.000  0.000  0.000  0.000  0.000  0.009
  2  0.001  0.001  0.000  0.003  0.000  0.000  0.000  0.000  0.000  0.005
tot  0.007  0.002  0.000  0.005  0.000  0.000  0.000  0.000  0.000  0.014
 

 k-point    8 :    0.50000000 0.00000000 0.00000000     weight = 0.01530612

band   1 # energy  -19.03011110 # occ.  2.00000000
 
ion      s     py     pz     px    dxy    dyz    dz2    dxz    dx2    tot
  1  0.033  0.048  0.000  0.143  0.000  0.000  0.000  0.000  0.000  0.224
  2  0.624  0.000  0.000  0.001  0.000  0.000  0.000  0.000  0.000  0.626
tot  0.657  0.048  0.000  0.144  0.000  0.000  0.000  0.000  0.000  0.850
 
band   2 # energy  -13.33031134 # occ.  2.00000000
 
ion      s     py     pz     px    dxy    dyz    dz2    dxz    dx2    tot
  1  0.331  0.016  0.000  0.047  0.000  0.000  0.000  0.000  0.000  0.394
  2  0.002  0.096  0.000  0.289  0.000  0.000  0.000  0.000  0.000  0.388
tot  0.333  0.112  0.000  0.336  0.000  0.000  0.000  0.000  0.000  0.781
 
band   3 # energy   -8.58734654 # occ.  2.00000000
 
ion      s     py     pz     px    dxy    dyz    dz2    dxz    dx2    tot
  1  0.000  0.277  0.000  0.092  0.000  0.000  0.000  0.000  0.000  0.369
  2  0.000  0.403  0.000  0.134  0.000  0.000  0.000  0.000  0.000  0.537
tot  0.000  0.679  0.000  0.226  0.000  0.000  0.000  0.000  0.000  0.906
 
band   4 # energy   -5.36809081 # occ.  2.00000000
 
ion      s     py     pz     px    dxy    dyz    dz2    dxz    dx2    tot
  1  0.000  0.000  0.077  0.000  0.000  0.000  0.000  0.000  0.000  0.077
  2  0.000  0.000  0.521  0.000  0.000  0.000  0.000  0.000  0.000  0.521
tot  0.000  0.000  0.598  0.000  0.000  0.000  0.000  0.000  0.000  0.598
 
band   5 # energy    0.31588495 # occ.  0.00000000
 
ion      s     py     pz     px    dxy    dyz    dz2    dxz    dx2    tot
  1  0.000  0.000  0.394  0.000  0.000  0.000  0.000  0.000  0.000  0.394
  2  0.000  0.000  0.062  0.000  0.000  0.000  0.000  0.000  0.000  0.062
tot  0.000  0.000  0.456  0.000  0.000  0.000  0.000  0.000  0.000  0.456
 
band   6 # energy    5.23097309 # occ.  0.00000000
 
ion      s     py     pz     px    dxy    dyz    dz2    dxz    dx2    tot
  1  0.207  0.015  0.000  0.045  0.000  0.000  0.000  0.000  0.000  0.267
  2  0.135  0.004  0.000  0.012  0.000  0.000  0.000  0.000  0.000  0.151
tot  0.342  0.019  0.000  0.057  0.000  0.000  0.000  0.000  0.000  0.418
 
band   7 # energy    7.98692930 # occ.  0.00000000
 
ion      s     py     pz     px    dxy    dyz    dz2    dxz    dx2    tot
  1  0.005  0.000  0.000  0.000  0.000  0.000  0.000  0.000  0.000  0.005
  2  0.005  0.016  0.000  0.047  0.000  0.000  0.000  0.000  0.000  0.068
tot  0.010  0.016  0.000  0.048  0.000  0.000  0.000  0.000  0.000  0.073
 
band   8 # energy    8.42457627 # occ.  0.00000000
 
ion      s     py     pz     px    dxy    dyz    dz2    dxz    dx2    tot
  1  0.030  0.008  0.000  0.023  0.000  0.000  0.000  0.000  0.000  0.061
  2  0.001  0.000  0.000  0.000  0.000  0.000  0.000  0.000  0.000  0.001
tot  0.031  0.008  0.000  0.024  0.000  0.000  0.000  0.000  0.000  0.062
 

 k-point    9 :    0.07142857 0.07142857 0.00000000     weight = 0.03061224

band   1 # energy  -21.80800237 # occ.  2.00000000
 
ion      s     py     pz     px    dxy    dyz    dz2    dxz    dx2    tot
  1  0.253  0.011  0.000  0.004  0.000  0.000  0.000  0.000  0.000  0.268
  2  0.510  0.003  0.000  0.001  0.000  0.000  0.000  0.000  0.000  0.514
tot  0.763  0.014  0.000  0.005  0.000  0.000  0.000  0.000  0.000  0.782
 
band   2 # energy   -9.29495746 # occ.  2.00000000
 
ion      s     py     pz     px    dxy    dyz    dz2    dxz    dx2    tot
  1  0.000  0.000  0.190  0.000  0.000  0.000  0.000  0.000  0.000  0.190
  2  0.000  0.000  0.328  0.000  0.000  0.000  0.000  0.000  0.000  0.328
tot  0.000  0.000  0.517  0.000  0.000  0.000  0.000  0.000  0.000  0.517
 
band   3 # energy   -6.93675154 # occ.  2.00000000
 
ion      s     py     pz     px    dxy    dyz    dz2    dxz    dx2    tot
  1  0.041  0.162  0.000  0.087  0.000  0.000  0.000  0.000  0.000  0.291
  2  0.029  0.422  0.000  0.141  0.000  0.000  0.000  0.000  0.000  0.592
tot  0.070  0.584  0.000  0.228  0.000  0.000  0.000  0.000  0.000  0.882
 
band   4 # energy   -6.37992038 # occ.  2.00000000
 
ion      s     py     pz     px    dxy    dyz    dz2    dxz    dx2    tot
  1  0.003  0.102  0.000  0.193  0.000  0.000  0.000  0.000  0.000  0.298
  2  0.000  0.150  0.000  0.450  0.000  0.000  0.000  0.000  0.000  0.600
tot  0.003  0.252  0.000  0.644  0.000  0.000  0.000  0.000  0.000  0.898
 
band   5 # energy    0.71701228 # occ.  0.00000000
 
ion      s     py     pz     px    dxy    dyz    dz2    dxz    dx2    tot
  1  0.000  0.000  0.000  0.000  0.000  0.000  0.000  0.000  0.000  0.001
  2  0.034  0.005  0.000  0.002  0.000  0.000  0.000  0.000  0.000  0.041
tot  0.034  0.005  0.000  0.002  0.000  0.000  0.000  0.000  0.000  0.042
 
band   6 # energy    1.57529421 # occ.  0.00000000
 
ion      s     py     pz     px    dxy    dyz    dz2    dxz    dx2    tot
  1  0.000  0.000  0.001  0.000  0.000  0.000  0.000  0.000  0.000  0.001
  2  0.000  0.000  0.036  0.000  0.000  0.000  0.000  0.000  0.000  0.036
tot  0.000  0.000  0.037  0.000  0.000  0.000  0.000  0.000  0.000  0.037
 
band   7 # energy    1.96817946 # occ.  0.00000000
 
ion      s     py     pz     px    dxy    dyz    dz2    dxz    dx2    tot
  1  0.000  0.000  0.000  0.000  0.000  0.000  0.000  0.000  0.000  0.000
  2  0.004  0.001  0.000  0.000  0.000  0.000  0.000  0.000  0.000  0.005
tot  0.004  0.001  0.000  0.000  0.000  0.000  0.000  0.000  0.000  0.005
 
band   8 # energy    2.81427369 # occ.  0.00000000
 
ion      s     py     pz     px    dxy    dyz    dz2    dxz    dx2    tot
  1  0.000  0.000  0.000  0.000  0.000  0.000  0.000  0.000  0.000  0.000
  2  0.000  0.000  0.032  0.000  0.000  0.000  0.000  0.000  0.000  0.032
tot  0.000  0.000  0.033  0.000  0.000  0.000  0.000  0.000  0.000  0.033
 

 k-point   10 :    0.14285714 0.07142857 0.00000000     weight = 0.06122449

band   1 # energy  -21.42854215 # occ.  2.00000000
 
ion      s     py     pz     px    dxy    dyz    dz2    dxz    dx2    tot
  1  0.230  0.020  0.000  0.015  0.000  0.000  0.000  0.000  0.000  0.266
  2  0.516  0.004  0.000  0.003  0.000  0.000  0.000  0.000  0.000  0.523
tot  0.746  0.024  0.000  0.019  0.000  0.000  0.000  0.000  0.000  0.789
 
band   2 # energy   -8.78281538 # occ.  2.00000000
 
ion      s     py     pz     px    dxy    dyz    dz2    dxz    dx2    tot
  1  0.000  0.000  0.183  0.000  0.000  0.000  0.000  0.000  0.000  0.183
  2  0.000  0.000  0.339  0.000  0.000  0.000  0.000  0.000  0.000  0.339
tot  0.000  0.000  0.522  0.000  0.000  0.000  0.000  0.000  0.000  0.522
 
band   3 # energy   -8.13824264 # occ.  2.00000000
 
ion      s     py     pz     px    dxy    dyz    dz2    dxz    dx2    tot
  1  0.081  0.068  0.000  0.158  0.000  0.000  0.000  0.000  0.000  0.307
  2  0.051  0.258  0.000  0.248  0.000  0.000  0.000  0.000  0.000  0.557
tot  0.132  0.326  0.000  0.406  0.000  0.000  0.000  0.000  0.000  0.864
 
band   4 # energy   -7.00719730 # occ.  2.00000000
 
ion      s     py     pz     px    dxy    dyz    dz2    dxz    dx2    tot
  1  0.009  0.205  0.000  0.107  0.000  0.000  0.000  0.000  0.000  0.321
  2  0.000  0.282  0.000  0.291  0.000  0.000  0.000  0.000  0.000  0.573
tot  0.010  0.487  0.000  0.398  0.000  0.000  0.000  0.000  0.000  0.894
 
band   5 # energy    1.35940753 # occ.  0.00000000
 
ion      s     py     pz     px    dxy    dyz    dz2    dxz    dx2    tot
  1  0.000  0.000  0.000  0.001  0.000  0.000  0.000  0.000  0.000  0.001
  2  0.030  0.007  0.000  0.005  0.000  0.000  0.000  0.000  0.000  0.041
tot  0.030  0.007  0.000  0.006  0.000  0.000  0.000  0.000  0.000  0.043
 
band   6 # energy    2.17843591 # occ.  0.00000000
 
ion      s     py     pz     px    dxy    dyz    dz2    dxz    dx2    tot
  1  0.000  0.000  0.000  0.000  0.000  0.000  0.000  0.000  0.000  0.000
  2  0.000  0.000  0.049  0.000  0.000  0.000  0.000  0.000  0.000  0.049
tot  0.000  0.000  0.049  0.000  0.000  0.000  0.000  0.000  0.000  0.049
 
band   7 # energy    2.61722662 # occ.  0.00000000
 
ion      s     py     pz     px    dxy    dyz    dz2    dxz    dx2    tot
  1  0.000  0.000  0.000  0.000  0.000  0.000  0.000  0.000  0.000  0.000
  2  0.003  0.001  0.000  0.001  0.000  0.000  0.000  0.000  0.000  0.005
tot  0.004  0.001  0.000  0.001  0.000  0.000  0.000  0.000  0.000  0.005
 
band   8 # energy    3.40933512 # occ.  0.00000000
 
ion      s     py     pz     px    dxy    dyz    dz2    dxz    dx2    tot
  1  0.000  0.000  0.001  0.000  0.000  0.000  0.000  0.000  0.000  0.001
  2  0.000  0.000  0.046  0.000  0.000  0.000  0.000  0.000  0.000  0.046
tot  0.000  0.000  0.047  0.000  0.000  0.000  0.000  0.000  0.000  0.047
 

 k-point   11 :    0.21428571 0.07142857 0.00000000     weight = 0.06122449

band   1 # energy  -20.88428692 # occ.  2.00000000
 
ion      s     py     pz     px    dxy    dyz    dz2    dxz    dx2    tot
  1  0.197  0.030  0.000  0.034  0.000  0.000  0.000  0.000  0.000  0.261
  2  0.527  0.006  0.000  0.006  0.000  0.000  0.000  0.000  0.000  0.539
tot  0.723  0.036  0.000  0.041  0.000  0.000  0.000  0.000  0.000  0.800
 
band   2 # energy   -9.59577229 # occ.  2.00000000
 
ion      s     py     pz     px    dxy    dyz    dz2    dxz    dx2    tot
  1  0.131  0.028  0.000  0.168  0.000  0.000  0.000  0.000  0.000  0.327
  2  0.064  0.173  0.000  0.279  0.000  0.000  0.000  0.000  0.000  0.517
tot  0.195  0.201  0.000  0.448  0.000  0.000  0.000  0.000  0.000  0.844
 
band   3 # energy   -8.04211929 # occ.  2.00000000
 
ion      s     py     pz     px    dxy    dyz    dz2    dxz    dx2    tot
  1  0.000  0.000  0.171  0.000  0.000  0.000  0.000  0.000  0.000  0.171