<?xml version="1.0" encoding="ISO-8859-1"?>
<modeling>
 <generator>
  <i name="program" type="string">vasp </i>
  <i name="version" type="string">5.3.5  </i>
  <i name="subversion" type="string">31Mar14 (build Jul 11 2014 22:06:56) complex                          parallel </i>
  <i name="platform" type="string">LinuxIFC </i>
  <i name="date" type="string">2020 12 02 </i>
  <i name="time" type="string">12:44:29 </i>
 </generator>
 <incar>
  <i type="int" name="ISTART">     0</i>
  <i type="string" name="PREC">accurate</i>
  <i type="string" name="ALGO"> Normal</i>
  <i name="AMIN">      0.01000000</i>
  <i type="int" name="ICHARG">     0</i>
  <i type="int" name="NELM">   400</i>
  <i type="int" name="IBRION">    -1</i>
  <i name="EDIFF">      0.00010000</i>
  <i type="int" name="NSW">     0</i>
  <i type="int" name="ISIF">     3</i>
  <i name="ENCUT">    520.00000000</i>
  <i type="logical" name="LREAL"> F  </i>
  <i type="int" name="ISMEAR">    -5</i>
  <i name="SIGMA">      0.05000000</i>
  <i type="logical" name="LWAVE"> F  </i>
  <i type="logical" name="LCHARG"> T  </i>
  <i type="logical" name="LVHAR"> F  </i>
  <i type="logical" name="LORBIT"> F  </i>
  <i type="logical" name="LAECHG"> F  </i>
  <i type="int" name="NELM">   400</i>
  <i name="PARAM1">      0.18333333</i>
  <i name="PARAM2">      0.22000000</i>
  <i type="logical" name="LUSE_VDW"> F  </i>
  <i name="AGGAC">      1.00000000</i>
 </incar>
 <kpoints>
  <generation param="Gamma">
   <v type="int" name="divisions">      14       14        1 </v>
   <v name="usershift">      0.00000000       0.00000000       0.00000000 </v>
   <v name="genvec1">      0.07142857      -0.00000000       0.00000000 </v>
   <v name="genvec2">      0.00000000       0.07142857       0.00000000 </v>
   <v name="genvec3">      0.00000000       0.00000000       1.00000000 </v>
   <v name="shift">      0.00000000       0.00000000       0.00000000 </v>
  </generation>
  <varray name="kpointlist" >
   <v>       0.00000000       0.00000000       0.00000000 </v>
   <v>       0.07142857       0.00000000       0.00000000 </v>
   <v>       0.14285714       0.00000000       0.00000000 </v>
   <v>       0.21428571      -0.00000000       0.00000000 </v>
   <v>       0.28571429       0.00000000       0.00000000 </v>
   <v>       0.35714286       0.00000000       0.00000000 </v>
   <v>       0.42857143      -0.00000000       0.00000000 </v>
   <v>       0.50000000       0.00000000       0.00000000 </v>
   <v>       0.07142857       0.07142857       0.00000000 </v>
   <v>       0.14285714       0.07142857       0.00000000 </v>
   <v>       0.21428571       0.07142857       0.00000000 </v>
   <v>       0.28571429       0.07142857       0.00000000 </v>
   <v>       0.35714286       0.07142857       0.00000000 </v>
   <v>       0.42857143       0.07142857       0.00000000 </v>
   <v>       0.14285714       0.14285714       0.00000000 </v>
   <v>       0.21428571       0.14285714       0.00000000 </v>
   <v>       0.28571429       0.14285714       0.00000000 </v>
   <v>       0.35714286       0.14285714       0.00000000 </v>
   <v>       0.42857143       0.14285714       0.00000000 </v>
   <v>       0.21428571       0.21428571       0.00000000 </v>
   <v>       0.28571429       0.21428571       0.00000000 </v>
   <v>       0.35714286       0.21428571       0.00000000 </v>
   <v>       0.28571429       0.28571429       0.00000000 </v>
   <v>       0.35714286       0.28571429       0.00000000 </v>
  </varray>
  <varray name="weights" >
   <v>       0.00510204 </v>
   <v>       0.03061224 </v>
   <v>       0.03061224 </v>
   <v>       0.03061224 </v>
   <v>       0.03061224 </v>
   <v>       0.03061224 </v>
   <v>       0.03061224 </v>
   <v>       0.01530612 </v>
   <v>       0.03061224 </v>
   <v>       0.06122449 </v>
   <v>       0.06122449 </v>
   <v>       0.06122449 </v>
   <v>       0.06122449 </v>
   <v>       0.06122449 </v>
   <v>       0.03061224 </v>
   <v>       0.06122449 </v>
   <v>       0.06122449 </v>
   <v>       0.06122449 </v>
   <v>       0.03061224 </v>
   <v>       0.03061224 </v>
   <v>       0.06122449 </v>
   <v>       0.06122449 </v>
   <v>       0.03061224 </v>
   <v>       0.03061224 </v>
  </varray>
  <varray name="tetrahedronlist"  type="int" >
   <v type="int" >       12        2        2        2        9 </v>
   <v type="int" >       12        1        2        2        2 </v>
   <v type="int" >        6        1        1        2        2 </v>
   <v type="int" >        6        2        2        9        9 </v>
   <v type="int" >       12        3        9        9       10 </v>
   <v type="int" >       12        2        3        9        9 </v>
   <v type="int" >       12        2        2        3        9 </v>
   <v type="int" >       12        3        9       10       10 </v>
   <v type="int" >       12        3        3        9       10 </v>
   <v type="int" >       12        2        3        3        9 </v>
   <v type="int" >       12        4       10       10       11 </v>
   <v type="int" >       12        3        4       10       10 </v>
   <v type="int" >       12        3        3        4       10 </v>
   <v type="int" >       12        4       10       11       11 </v>
   <v type="int" >       12        4        4       10       11 </v>
   <v type="int" >       12        3        4        4       10 </v>
   <v type="int" >       12        5       11       11       12 </v>
   <v type="int" >       12        4        5       11       11 </v>
   <v type="int" >       12        4        4        5       11 </v>
   <v type="int" >       12        5       11       12       12 </v>
   <v type="int" >       12        5        5       11       12 </v>
   <v type="int" >       12        4        5        5       11 </v>
   <v type="int" >       12        6       12       12       13 </v>
   <v type="int" >       12        5        6       12       12 </v>
   <v type="int" >       12        5        5        6       12 </v>
   <v type="int" >       12        6       12       13       13 </v>
   <v type="int" >       12        6        6       12       13 </v>
   <v type="int" >       12        5        6        6       12 </v>
   <v type="int" >       12        7       13       13       14 </v>
   <v type="int" >       12        6        7       13       13 </v>
   <v type="int" >       12        6        6        7       13 </v>
   <v type="int" >       12        7       13       14       14 </v>
   <v type="int" >       12        7        7       13       14 </v>
   <v type="int" >       12        6        7        7       13 </v>
   <v type="int" >       12        8       14       14       14 </v>
   <v type="int" >       12        7        8       14       14 </v>
   <v type="int" >       12        7        7        8       14 </v>
   <v type="int" >        6        8        8       14       14 </v>
   <v type="int" >       12        7        8        8       14 </v>
   <v type="int" >       12       10       10       10       15 </v>
   <v type="int" >       12        9       10       10       10 </v>
   <v type="int" >        6        9        9       10       10 </v>
   <v type="int" >        6       10       10       15       15 </v>
   <v type="int" >       12       11       15       15       16 </v>
   <v type="int" >       12       10       11       15       15 </v>
   <v type="int" >       12       10       10       11       15 </v>
   <v type="int" >       12       11       15       16       16 </v>
   <v type="int" >       12       11       11       15       16 </v>
   <v type="int" >       12       10       11       11       15 </v>
   <v type="int" >       12       12       16       16       17 </v>
   <v type="int" >       12       11       12       16       16 </v>
   <v type="int" >       12       11       11       12       16 </v>
   <v type="int" >       12       12       16       17       17 </v>
   <v type="int" >       12       12       12       16       17 </v>
   <v type="int" >       12       11       12       12       16 </v>
   <v type="int" >       12       13       17       17       18 </v>
   <v type="int" >       12       12       13       17       17 </v>
   <v type="int" >       12       12       12       13       17 </v>
   <v type="int" >       12       13       17       18       18 </v>
   <v type="int" >       12       13       13       17       18 </v>
   <v type="int" >       12       12       13       13       17 </v>
   <v type="int" >       12       14       18       18       19 </v>
   <v type="int" >       12       13       14       18       18 </v>
   <v type="int" >       12       13       13       14       18 </v>
   <v type="int" >       12       14       18       19       19 </v>
   <v type="int" >       12       14       14       18       19 </v>
   <v type="int" >       12       13       14       14       18 </v>
   <v type="int" >        6       14       14       19       19 </v>
   <v type="int" >       12       14       14       14       19 </v>
   <v type="int" >       12       16       16       16       20 </v>
   <v type="int" >       12       15       16       16       16 </v>
   <v type="int" >        6       15       15       16       16 </v>
   <v type="int" >        6       16       16       20       20 </v>
   <v type="int" >       12       17       20       20       21 </v>
   <v type="int" >       12       16       17       20       20 </v>
   <v type="int" >       12       16       16       17       20 </v>
   <v type="int" >       12       17       20       21       21 </v>
   <v type="int" >       12       17       17       20       21 </v>
   <v type="int" >       12       16       17       17       20 </v>
   <v type="int" >       12       18       21       21       22 </v>
   <v type="int" >       12       17       18       21       21 </v>
   <v type="int" >       12       17       17       18       21 </v>
   <v type="int" >       12       18       21       22       22 </v>
   <v type="int" >       12       18       18       21       22 </v>
   <v type="int" >       12       17       18       18       21 </v>
   <v type="int" >       12       19       22       22       22 </v>
   <v type="int" >       12       18       19       22       22 </v>
   <v type="int" >       12       18       18       19       22 </v>
   <v type="int" >        6       19       19       22       22 </v>
   <v type="int" >       12       18       19       19       22 </v>
   <v type="int" >       12       21       21       21       23 </v>
   <v type="int" >       12       20       21       21       21 </v>
   <v type="int" >        6       20       20       21       21 </v>
   <v type="int" >        6       21       21       23       23 </v>
   <v type="int" >       12       22       23       23       24 </v>
   <v type="int" >       12       21       22       23       23 </v>
   <v type="int" >       12       21       21       22       23 </v>
   <v type="int" >       12       22       23       24       24 </v>
   <v type="int" >       12       22       22       23       24 </v>
   <v type="int" >       12       21       22       22       23 </v>
   <v type="int" >        6       22       22       24       24 </v>
   <v type="int" >       12       22       22       22       24 </v>
   <v type="int" >        6       24       24       24       24 </v>
   <v type="int" >       12       23       24       24       24 </v>
   <v type="int" >        6       23       23       24       24 </v>
  </varray>
  <i name="volumeweight">      0.00085034 </i>
 </kpoints>
 <parameters>
  <separator name="general" >
   <i type="string" name="SYSTEM">unknown system</i>
   <i type="logical" name="LCOMPAT"> F  </i>
  </separator>
  <separator name="electronic" >
   <i type="string" name="PREC">accura</i>
   <i name="ENMAX">    520.00000000</i>
   <i name="ENAUG">    627.11200000</i>
   <i name="EDIFF">      0.00010000</i>
   <i type="int" name="IALGO">    38</i>
   <i type="int" name="IWAVPR">    10</i>
   <i type="int" name="NBANDS">     8</i>
   <i name="NELECT">      8.00000000</i>
   <i type="int" name="TURBO">     0</i>
   <i type="int" name="IRESTART">     0</i>
   <i type="int" name="NREBOOT">     0</i>
   <i type="int" name="NMIN">     0</i>
   <i name="EREF">      0.00000000</i>
   <separator name="electronic smearing" >
    <i type="int" name="ISMEAR">    -5</i>
    <i name="SIGMA">      0.05000000</i>
    <i name="KSPACING">      0.50000000</i>
    <i type="logical" name="KGAMMA"> T  </i>
   </separator>
   <separator name="electronic projectors" >
    <i type="logical" name="LREAL"> F  </i>
    <v name="ROPT">      0.00000000      0.00000000</v>
    <i type="int" name="LMAXPAW">  -100</i>
    <i type="int" name="LMAXMIX">     2</i>
    <i type="logical" name="NLSPLINE"> F  </i>
   </separator>
   <separator name="electronic startup" >
    <i type="int" name="ISTART">     0</i>
    <i type="int" name="ICHARG">     0</i>
    <i type="int" name="INIWAV">     1</i>
   </separator>
   <separator name="electronic spin" >
    <i type="int" name="ISPIN">     1</i>
    <i type="logical" name="LNONCOLLINEAR"> F  </i>
    <v name="MAGMOM">      1.00000000      1.00000000</v>
    <i name="NUPDOWN">     -1.00000000</i>
    <i type="logical" name="LSORBIT"> F  </i>
    <v name="SAXIS">      0.00000000      0.00000000      1.00000000</v>
    <i type="logical" name="LSPIRAL"> F  </i>
    <v name="QSPIRAL">      0.00000000      0.00000000      0.00000000</v>
    <i type="logical" name="LZEROZ"> F  </i>
   </separator>
   <separator name="electronic exchange-correlation" >
    <i type="logical" name="LASPH"> F  </i>
    <i type="logical" name="LMETAGGA"> F  </i>
   </separator>
   <separator name="electronic convergence" >
    <i type="int" name="NELM">   400</i>
    <i type="int" name="NELMDL">    -5</i>
    <i type="int" name="NELMIN">     2</i>
    <i name="ENINI">    520.00000000</i>
    <separator name="electronic convergence detail" >
     <i type="logical" name="LDIAG"> T  </i>
     <i type="logical" name="LSUBROT"> F  </i>
     <i name="WEIMIN">      0.00000000</i>
     <i name="EBREAK">      0.00000313</i>
     <i name="DEPER">      0.30000000</i>
     <i type="int" name="NRMM">     4</i>
     <i name="TIME">      0.40000000</i>
    </separator>
   </separator>
   <separator name="electronic mixer" >
    <i name="AMIX">      0.40000000</i>
    <i name="BMIX">      1.00000000</i>
    <i name="AMIN">      0.01000000</i>
    <i name="AMIX_MAG">      1.60000000</i>
    <i name="BMIX_MAG">      1.00000000</i>
    <separator name="electronic mixer details" >
     <i type="int" name="IMIX">     4</i>
     <i type="int" name="MAXMIX">   -45</i>
     <i name="WC">    100.00000000</i>
     <i type="int" name="INIMIX">     1</i>
     <i type="int" name="MIXPRE">     1</i>
     <i type="int" name="MREMOVE">     5</i>
    </separator>
   </separator>
   <separator name="electronic dipolcorrection" >
    <i type="logical" name="LDIPOL"> F  </i>
    <i type="logical" name="LMONO"> F  </i>
    <i type="int" name="IDIPOL">     0</i>
    <i name="EPSILON">      1.00000000</i>
    <v name="DIPOL">   -100.00000000   -100.00000000   -100.00000000</v>
    <i name="EFIELD">      0.00000000</i>
   </separator>
  </separator>
  <separator name="grids" >
   <i type="int" name="NGX">    20</i>
   <i type="int" name="NGY">    20</i>
   <i type="int" name="NGZ">   150</i>
   <i type="int" name="NGXF">    40</i>
   <i type="int" name="NGYF">    40</i>
   <i type="int" name="NGZF">   300</i>
   <i type="logical" name="ADDGRID"> F  </i>
  </separator>
  <separator name="ionic" >
   <i type="int" name="NSW">     0</i>
   <i type="int" name="IBRION">    -1</i>
   <i type="int" name="ISIF">     3</i>
   <i name="PSTRESS">      0.00000000</i>
   <i name="EDIFFG">      0.00100000</i>
   <i type="int" name="NFREE">     0</i>
   <i name="POTIM">      0.50000000</i>
   <i name="SMASS">     -3.00000000</i>
   <i name="SCALEE">      1.00000000</i>
  </separator>
  <separator name="ionic md" >
   <i name="TEBEG">      0.00010000</i>
   <i name="TEEND">      0.00010000</i>
   <i type="int" name="NBLOCK">     1</i>
   <i type="int" name="KBLOCK">     1</i>
   <i type="int" name="NPACO">   256</i>
   <i name="APACO">     16.00000000</i>
  </separator>
  <separator name="symmetry" >
   <i type="int" name="ISYM">     2</i>
   <i name="SYMPREC">      0.00001000</i>
  </separator>
  <separator name="dos" >
   <i type="logical" name="LORBIT"> F  </i>
   <v name="RWIGS">     -1.00000000     -1.00000000</v>
   <i type="int" name="NEDOS">   301</i>
   <i name="EMIN">     10.00000000</i>
   <i name="EMAX">    -10.00000000</i>
   <i name="EFERMI">      0.00000000</i>
  </separator>
  <separator name="writing" >
   <i type="int" name="NWRITE">     2</i>
   <i type="logical" name="LWAVE"> F  </i>
   <i type="logical" name="LCHARG"> T  </i>
   <i type="logical" name="LPARD"> F  </i>
   <i type="logical" name="LVTOT"> F  </i>
   <i type="logical" name="LVHAR"> F  </i>
   <i type="logical" name="LELF"> F  </i>
   <i type="logical" name="LOPTICS"> F  </i>
   <v name="STM">      0.00000000      0.00000000      0.00000000      0.00000000      0.00000000      0.00000000      0.00000000</v>
  </separator>
  <separator name="performance" >
   <i type="int" name="NPAR">     4</i>
   <i type="int" name="NSIM">     4</i>
   <i type="int" name="NBLK">    -1</i>
   <i type="logical" name="LPLANE"> T  </i>
   <i type="logical" name="LSCALAPACK"> T  </i>
   <i type="logical" name="LSCAAWARE"> F  </i>
   <i type="logical" name="LSCALU"> F  </i>
   <i type="logical" name="LASYNC"> F  </i>
   <i type="logical" name="LORBITALREAL"> F  </i>
  </separator>
  <separator name="miscellaneous" >
   <i type="int" name="IDIOT">     3</i>
   <i type="logical" name="LMUSIC"> F  </i>
   <v name="POMASS">     10.81100000     14.00100000</v>
   <v name="DARWINR">      0.00000000      0.00000000</v>
   <v name="DARWINV">      1.00000000      1.00000000</v>
   <i type="logical" name="LCORR"> T  </i>
  </separator>
  <i type="logical" name="GGA_COMPAT"> T  </i>
  <i type="logical" name="LBERRY"> F  </i>
  <i type="int" name="ICORELEVEL">     0</i>
  <i type="logical" name="LDAU"> F  </i>
  <i type="int" name="I_CONSTRAINED_M">     0</i>
  <separator name="electronic exchange-correlation" >
   <i type="string" name="GGA">--</i>
   <i type="int" name="VOSKOWN">     0</i>
   <i type="logical" name="LHFCALC"> F  </i>
   <i type="string" name="PRECFOCK"></i>
   <i type="logical" name="LSYMGRAD"> F  </i>
   <i type="logical" name="LHFONE"> F  </i>
   <i type="logical" name="LRHFCALC"> F  </i>
   <i type="logical" name="LTHOMAS"> F  </i>
   <i type="logical" name="LMODELHF"> F  </i>
   <i name="ENCUT4O">     -1.00000000</i>
   <i type="int" name="EXXOEP">     0</i>
   <i type="int" name="FOURORBIT">     0</i>
   <i name="AEXX">      0.00000000</i>
   <i name="HFALPHA">      0.00000000</i>
   <i name="MCALPHA">      0.00000000</i>
   <i name="ALDAX">      1.00000000</i>
   <i name="AGGAX">      1.00000000</i>
   <i name="ALDAC">      1.00000000</i>
   <i name="AGGAC">      1.00000000</i>
   <i type="int" name="NKREDX">     1</i>
   <i type="int" name="NKREDY">     1</i>
   <i type="int" name="NKREDZ">     1</i>
   <i type="logical" name="SHIFTRED"> F  </i>
   <i type="logical" name="ODDONLY"> F  </i>
   <i type="logical" name="EVENONLY"> F  </i>
   <i type="int" name="LMAXFOCK">     0</i>
   <i type="int" name="NMAXFOCKAE">     0</i>
   <i type="logical" name="LFOCKAEDFT"> F  </i>
   <i name="HFSCREEN">      0.00000000</i>
   <i name="HFSCREENC">      0.00000000</i>
   <i type="int" name="NBANDSGWLOW">     0</i>
  </separator>
  <separator name="vdW DFT" >
   <i type="logical" name="LUSE_VDW"> F  </i>
   <i name="Zab_VDW">     -0.84910000</i>
   <i name="PARAM1">      0.18333333</i>
   <i name="PARAM2">      0.22000000</i>
   <i name="PARAM3">      0.00000000</i>
  </separator>
  <separator name="model GW" >
   <i type="int" name="MODEL_GW">     0</i>
   <i name="MODEL_EPS0">     32.71007893</i>
   <i name="MODEL_ALPHA">      1.00000000</i>
  </separator>
  <separator name="linear response parameters" >
   <i type="logical" name="LEPSILON"> F  </i>
   <i type="logical" name="LRPA"> F  </i>
   <i type="logical" name="LNABLA"> F  </i>
   <i type="logical" name="LVEL"> F  </i>
   <i type="int" name="KINTER">     0</i>
   <i name="CSHIFT">      0.10000000</i>
   <i name="OMEGAMAX">     -1.00000000</i>
   <i name="DEG_THRESHOLD">      0.00200000</i>
  </separator>
  <separator name="orbital magnetization" >
   <i type="logical" name="NUCIND"> F  </i>
   <v name="MAGPOS">      0.00000000      0.00000000      0.00000000</v>
   <i type="logical" name="LNICSALL"> T  </i>
   <i type="logical" name="ORBITALMAG"> F  </i>
   <i type="logical" name="LMAGBLOCH"> F  </i>
   <i type="logical" name="LCHIMAG"> F  </i>
   <i type="logical" name="LGAUGE"> T  </i>
   <i type="int" name="MAGATOM">     0</i>
   <v name="MAGDIPOL">      0.00000000      0.00000000      0.00000000</v>
   <v name="AVECCONST">      0.00000000      0.00000000      0.00000000</v>
  </separator>
  <separator name="response functions" >
   <i type="logical" name="LADDER"> F  </i>
   <i type="logical" name="LFXC"> F  </i>
   <i type="logical" name="LHARTREE"> T  </i>
   <i type="int" name="IBSE">     0</i>
   <i type="logical" name="LTCTE"> F  </i>
   <i type="logical" name="LTETE"> F  </i>
   <i type="logical" name="LTRIPLET"> F  </i>
   <i type="logical" name="LFXCEPS"> F  </i>
   <i type="logical" name="LFXHEG"> F  </i>
   <i type="logical" name="L2ORDER"> F  </i>
   <i type="logical" name="LUSEW"> F  </i>
   <i name="ENCUTGW">     -2.00000000</i>
   <i name="ENCUTGWSOFT">     -2.00000000</i>
   <i name="ENCUTLF">     -1.00000000</i>
   <i type="int" name="LMAXMP2">    -1</i>
   <i name="SCISSOR">      0.00000000</i>
   <i type="int" name="NOMEGA">     0</i>
   <i type="int" name="NOMEGAR">     0</i>
   <i type="int" name="NBANDSGW">    -1</i>
   <i type="int" name="NBANDSO">    -1</i>
   <i type="int" name="NBANDSV">    -1</i>
   <i type="int" name="NELM">   400</i>
   <i type="int" name="DIM">     3</i>
   <i type="int" name="ANTIRES">     0</i>
   <i name="OMEGAMAX">    -30.00000000</i>
   <i name="OMEGAMIN">    -30.00000000</i>
   <i name="OMEGATL">   -200.00000000</i>
   <i type="int" name="OMEGAGRID">     0</i>
   <i name="CSHIFT">     -0.10000000</i>
   <i type="logical" name="SELFENERGY"> F  </i>
   <i type="logical" name="LSPECTRAL"> F  </i>
   <i type="logical" name="ODDONLYGW"> F  </i>
   <i type="logical" name="EVENONLYGW"> F  </i>
   <i type="int" name="NKREDLFX">     1</i>
   <i type="int" name="NKREDLFY">     1</i>
   <i type="int" name="NKREDLFZ">     1</i>
   <i type="int" name="MAXMEM">  1800</i>
   <i type="int" name="TELESCOPE">     0</i>
   <i type="int" name="TAUPAR">     1</i>
  </separator>
  <separator name="External order field" >
   <i name="OFIELD_KAPPA">      0.00000000</i>
   <v name="OFIELD_K">      0.00000000      0.00000000      0.00000000</v>
   <i name="OFIELD_Q6_NEAR">      0.00000000</i>
   <i name="OFIELD_Q6_FAR">      0.00000000</i>
   <i name="OFIELD_A">      0.00000000</i>
  </separator>
 </parameters>
 <atominfo>
  <atoms>       2 </atoms>
  <types>       2 </types>
  <array name="atoms" >
   <dimension dim="1">ion</dimension>
   <field type="string">element</field>
   <field type="int">atomtype</field>
   <set>
    <rc><c>B </c><c>   1</c></rc>
    <rc><c>N </c><c>   2</c></rc>
   </set>
  </array>
  <array name="atomtypes" >
   <dimension dim="1">type</dimension>
   <field type="int">atomspertype</field>
   <field type="string">element</field>
   <field>mass</field>
   <field>valence</field>
   <field type="string">pseudopotential</field>
   <set>
    <rc><c>   1</c><c>B </c><c>     10.81100000</c><c>      3.00000000</c><c>  PAW_PBE B 06Sep2000                   </c></rc>
    <rc><c>   1</c><c>N </c><c>     14.00100000</c><c>      5.00000000</c><c>  PAW_PBE N 08Apr2002                   </c></rc>
   </set>
  </array>
 </atominfo>
 <structure name="initialpos" >
  <crystal>
   <varray name="basis" >
    <v>       2.50899500       0.00000000       0.00000000 </v>
    <v>      -1.25449800       2.17285400       0.00000000 </v>
    <v>       0.00000000       0.00000000      20.00000000 </v>
   </varray>
   <i name="volume">    109.03359643 </i>
   <varray name="rec_basis" >
    <v>       0.39856596       0.23011219       0.00000000 </v>
    <v>       0.00000000       0.46022420       0.00000000 </v>
    <v>       0.00000000       0.00000000       0.05000000 </v>
   </varray>
  </crystal>
  <varray name="positions" >
   <v>       0.00000000       0.00000000       0.50000000 </v>
   <v>       0.33333300       0.66666700       0.50000000 </v>
  </varray>
 </structure>
 <calculation>
  <scstep>
   <time name="dav">    1.80    1.80</time>
   <time name="total">    2.22    2.22</time>
   <energy>
    <i name="alphaZ">      3.26364691 </i>
    <i name="ewald">   1226.38767898 </i>
    <i name="hartreedc">    -66.13160430 </i>
    <i name="XCdc">     14.41297633 </i>
    <i name="pawpsdc">     35.76720277 </i>
    <i name="pawaedc">    -34.40377517 </i>
    <i name="eentropy">      0.00000000 </i>
    <i name="bandstr">  -3242.30536784 </i>
    <i name="atom">    335.70528947 </i>
    <i name="e_fr_energy">  -1727.30395283 </i>
    <i name="e_wo_entrp">  -1727.30395283 </i>
    <i name="e_0_energy">  -1727.30395283 </i>
   </energy>
  </scstep>
  <scstep>
   <time name="dav">    2.15    2.16</time>
   <time name="total">    2.16    2.16</time>
   <energy>
    <i name="e_fr_energy">  -1960.79769842 </i>
    <i name="e_wo_entrp">  -1960.79769842 </i>
    <i name="e_0_energy">  -1960.79769842 </i>
   </energy>
  </scstep>
  <scstep>
   <time name="dav">    2.18    2.18</time>
   <time name="total">    2.18    2.18</time>
   <energy>
    <i name="e_fr_energy">  -2009.98684293 </i>
    <i name="e_wo_entrp">  -2009.98684293 </i>
    <i name="e_0_energy">  -2009.98684293 </i>
   </energy>
  </scstep>
  <scstep>
   <time name="dav">    2.17    2.17</time>
   <time name="total">    2.17    2.17</time>
   <energy>
    <i name="e_fr_energy">  -2017.06185570 </i>
    <i name="e_wo_entrp">  -2017.06185570 </i>
    <i name="e_0_energy">  -2017.06185570 </i>
   </energy>
  </scstep>
  <scstep>
   <time name="dav">    2.17    2.17</time>
   <time name="total">    2.29    2.29</time>
   <energy>
    <i name="e_fr_energy">  -2017.91196087 </i>
    <i name="e_wo_entrp">  -2017.91196087 </i>
    <i name="e_0_energy">  -2017.91196087 </i>
   </energy>
  </scstep>
  <scstep>
   <time name="dav">    1.55    1.55</time>
   <time name="total">    2.08    2.08</time>
   <energy>
    <i name="e_fr_energy">  -1679.44263505 </i>
    <i name="e_wo_entrp">  -1679.44263505 </i>
    <i name="e_0_energy">  -1679.44263505 </i>
   </energy>
  </scstep>
  <scstep>
   <time name="dav">    2.02    2.02</time>
   <time name="total">    2.55    2.55</time>
   <energy>
    <i name="e_fr_energy">  -1419.25197852 </i>
    <i name="e_wo_entrp">  -1419.25197852 </i>
    <i name="e_0_energy">  -1419.25197852 </i>
   </energy>
  </scstep>
  <scstep>
   <time name="dav">    1.76    1.77</time>
   <time name="total">    2.29    2.29</time>
   <energy>
    <i name="e_fr_energy">  -1254.65341013 </i>
    <i name="e_wo_entrp">  -1254.65341013 </i>
    <i name="e_0_energy">  -1254.65341013 </i>
   </energy>
  </scstep>
  <scstep>
   <time name="dav">    1.35    1.35</time>
   <time name="total">    1.87    1.87</time>
   <energy>
    <i name="e_fr_energy">   -785.31702084 </i>
    <i name="e_wo_entrp">   -785.31702084 </i>
    <i name="e_0_energy">   -785.31702084 </i>
   </energy>
  </scstep>
  <scstep>
   <time name="dav">    1.85    1.85</time>
   <time name="total">    2.37    2.37</time>
   <energy>
    <i name="e_fr_energy">   -523.83073529 </i>
    <i name="e_wo_entrp">   -523.83073529 </i>
    <i name="e_0_energy">   -523.83073529 </i>
   </energy>
  </scstep>
  <scstep>
   <time name="dav">    2.17    2.17</time>
   <time name="total">    2.70    2.70</time>
   <energy>
    <i name="e_fr_energy">   -244.81984324 </i>
    <i name="e_wo_entrp">   -244.81984324 </i>
    <i name="e_0_energy">   -244.81984324 </i>
   </energy>
  </scstep>
  <scstep>
   <time name="dav">    1.94    1.94</time>
   <time name="total">    2.45    2.46</time>
   <energy>
    <i name="e_fr_energy">   -230.79938284 </i>
    <i name="e_wo_entrp">   -230.79938284 </i>
    <i name="e_0_energy">   -230.79938284 </i>
   </energy>
  </scstep>
  <scstep>
   <time name="dav">    1.73    1.73</time>
   <time name="total">    2.29    2.29</time>
   <energy>
    <i name="e_fr_energy">   -146.94397646 </i>
    <i name="e_wo_entrp">   -146.94397646 </i>
    <i name="e_0_energy">   -146.94397646 </i>
   </energy>
  </scstep>
  <scstep>
   <time name="dav">    1.79    1.79</time>
   <time name="total">    2.32    2.32</time>
   <energy>
    <i name="e_fr_energy">   -536.11783675 </i>
    <i name="e_wo_entrp">   -536.11783675 </i>
    <i name="e_0_energy">   -536.11783675 </i>
   </energy>
  </scstep>
  <scstep>
   <time name="dav">    1.66    1.66</time>
   <time name="total">    2.18    2.19</time>
   <energy>
    <i name="e_fr_energy">   -647.31333488 </i>
    <i name="e_wo_entrp">   -647.31333488 </i>
    <i name="e_0_energy">   -647.31333488 </i>
   </energy>
  </scstep>
  <scstep>
   <time name="dav">    1.50    1.50</time>
   <time name="total">    2.02    2.02</time>
   <energy>
    <i name="e_fr_energy">   -416.86795639 </i>
    <i name="e_wo_entrp">   -416.86795639 </i>
    <i name="e_0_energy">   -416.86795639 </i>
   </energy>
  </scstep>
  <scstep>
   <time name="dav">    1.98    1.98</time>
   <time name="total">    2.53    2.54</time>
   <energy>
    <i name="e_fr_energy">    -76.32402398 </i>
    <i name="e_wo_entrp">    -76.32402398 </i>
    <i name="e_0_energy">    -76.32402398 </i>
   </energy>
  </scstep>
  <scstep>
   <time name="dav">    1.94    1.94</time>
   <time name="total">    2.49    2.49</time>
   <energy>
    <i name="e_fr_energy">     -8.36953667 </i>
    <i name="e_wo_entrp">     -8.36953667 </i>
    <i name="e_0_energy">     -8.36953667 </i>
   </energy>
  </scstep>
  <scstep>
   <time name="dav">    2.03    2.03</time>
   <time name="total">    2.58    2.58</time>
   <energy>
    <i name="e_fr_energy">   -162.66208662 </i>
    <i name="e_wo_entrp">   -162.66208662 </i>
    <i name="e_0_energy">   -162.66208662 </i>
   </energy>
  </scstep>
  <scstep>
   <time name="dav">    1.82    1.83</time>
   <time name="total">    2.37    2.37</time>
   <energy>
    <i name="e_fr_energy">   -167.06104366 </i>
    <i name="e_wo_entrp">   -167.06104366 </i>
    <i name="e_0_energy">   -167.06104366 </i>
   </energy>
  </scstep>
  <scstep>
   <time name="dav">    2.01    2.01</time>
   <time name="total">    2.57    2.58</time>
   <energy>
    <i name="e_fr_energy">     -3.08677025 </i>
    <i name="e_wo_entrp">     -3.08677025 </i>
    <i name="e_0_energy">     -3.08677025 </i>
   </energy>
  </scstep>
  <scstep>
   <time name="dav">    1.96    1.96</time>
   <time name="total">    2.49    2.50</time>
   <energy>
    <i name="e_fr_energy">    -44.89433925 </i>
    <i name="e_wo_entrp">    -44.89433925 </i>
    <i name="e_0_energy">    -44.89433925 </i>
   </energy>
  </scstep>
  <scstep>
   <time name="dav">    1.88    1.88</time>
   <time name="total">    2.41    2.41</time>
   <energy>
    <i name="e_fr_energy">    -57.58748080 </i>
    <i name="e_wo_entrp">    -57.58748080 </i>
    <i name="e_0_energy">    -57.58748080 </i>
   </energy>
  </scstep>
  <scstep>
   <time name="dav">    1.94    1.94</time>
   <time name="total">    2.47    2.47</time>
   <energy>
    <i name="e_fr_energy">    -64.11630218 </i>
    <i name="e_wo_entrp">    -64.11630218 </i>
    <i name="e_0_energy">    -64.11630218 </i>
   </energy>
  </scstep>
  <scstep>
   <time name="dav">    1.88    1.88</time>
   <time name="total">    2.40    2.40</time>
   <energy>
    <i name="e_fr_energy">   -116.03317123 </i>
    <i name="e_wo_entrp">   -116.03317123 </i>
    <i name="e_0_energy">   -116.03317123 </i>
   </energy>
  </scstep>
  <scstep>
   <time name="dav">    2.05    2.05</time>
   <time name="total">    2.56    2.57</time>
   <energy>
    <i name="e_fr_energy">   -123.82195855 </i>
    <i name="e_wo_entrp">   -123.82195855 </i>
    <i name="e_0_energy">   -123.82195855 </i>
   </energy>
  </scstep>
  <scstep>
   <time name="dav">    1.52    1.52</time>
   <time name="total">    2.05    2.05</time>
   <energy>
    <i name="e_fr_energy">   -119.18509513 </i>
    <i name="e_wo_entrp">   -119.18509513 </i>
    <i name="e_0_energy">   -119.18509513 </i>
   </energy>
  </scstep>
  <scstep>
   <time name="dav">    1.91    1.92</time>
   <time name="total">    2.43    2.44</time>
   <energy>
    <i name="e_fr_energy">   -139.91592898 </i>
    <i name="e_wo_entrp">   -139.91592898 </i>
    <i name="e_0_energy">   -139.91592898 </i>
   </energy>
  </scstep>
  <scstep>
   <time name="dav">    1.95    1.95</time>
   <time name="total">    2.47    2.47</time>
   <energy>
    <i name="e_fr_energy">   -155.35177637 </i>
    <i name="e_wo_entrp">   -155.35177637 </i>
    <i name="e_0_energy">   -155.35177637 </i>
   </energy>
  </scstep>
  <scstep>
   <time name="dav">    1.82    1.83</time>
   <time name="total">    2.34    2.35</time>
   <energy>
    <i name="e_fr_energy">   -167.94122807 </i>
    <i name="e_wo_entrp">   -167.94122807 </i>
    <i name="e_0_energy">   -167.94122807 </i>
   </energy>
  </scstep>
  <scstep>
   <time name="dav">    1.90    1.90</time>
   <time name="total">    2.42    2.43</time>
   <energy>
    <i name="e_fr_energy">   -166.43617505 </i>
    <i name="e_wo_entrp">   -166.43617505 </i>
    <i name="e_0_energy">   -166.43617505 </i>
   </energy>
  </scstep>
  <scstep>
   <time name="dav">    1.54    1.54</time>
   <time name="total">    2.07    2.07</time>
   <energy>
    <i name="e_fr_energy">   -156.11875738 </i>
    <i name="e_wo_entrp">   -156.11875738 </i>
    <i name="e_0_energy">   -156.11875738 </i>
   </energy>
  </scstep>
  <scstep>
   <time name="dav">    1.28    1.28</time>
   <time name="total">    1.81    1.81</time>
   <energy>
    <i name="e_fr_energy">    -67.25791522 </i>
    <i name="e_wo_entrp">    -67.25791522 </i>
    <i name="e_0_energy">    -67.25791522 </i>
   </energy>
  </scstep>
  <scstep>
   <time name="dav">    2.03    2.03</time>
   <time name="total">    2.56    2.56</time>
   <energy>
    <i name="e_fr_energy">    -46.43731973 </i>
    <i name="e_wo_entrp">    -46.43731973 </i>
    <i name="e_0_energy">    -46.43731973 </i>
   </energy>
  </scstep>
  <scstep>
   <time name="dav">    1.67    1.68</time>
   <time name="total">    2.20    2.21</time>
   <energy>
    <i name="e_fr_energy">    -32.45889392 </i>
    <i name="e_wo_entrp">    -32.45889392 </i>
    <i name="e_0_energy">    -32.45889392 </i>
   </energy>
  </scstep>
  <scstep>
   <time name="dav">    1.94    1.94</time>
   <time name="total">    2.47    2.47</time>
   <energy>
    <i name="e_fr_energy">    -23.12364602 </i>
    <i name="e_wo_entrp">    -23.12364602 </i>
    <i name="e_0_energy">    -23.12364602 </i>
   </energy>
  </scstep>
  <scstep>
   <time name="dav">    2.06    2.06</time>
   <time name="total">    2.59    2.60</time>
   <energy>
    <i name="e_fr_energy">    -22.15092814 </i>
    <i name="e_wo_entrp">    -22.15092814 </i>
    <i name="e_0_energy">    -22.15092814 </i>
   </energy>
  </scstep>
  <scstep>
   <time name="dav">    2.08    2.08</time>
   <time name="total">    2.61    2.61</time>
   <energy>
    <i name="e_fr_energy">    -21.56321964 </i>
    <i name="e_wo_entrp">    -21.56321964 </i>
    <i name="e_0_energy">    -21.56321964 </i>
   </energy>
  </scstep>
  <scstep>
   <time name="dav">    1.75    1.76</time>
   <time name="total">    2.30    2.31</time>
   <energy>
    <i name="e_fr_energy">    -23.42113435 </i>
    <i name="e_wo_entrp">    -23.42113435 </i>
    <i name="e_0_energy">    -23.42113435 </i>
   </energy>
  </scstep>
  <scstep>
   <time name="dav">    1.62    1.62</time>
   <time name="total">    2.17    2.17</time>
   <energy>
    <i name="e_fr_energy">    -22.00992912 </i>
    <i name="e_wo_entrp">    -22.00992912 </i>
    <i name="e_0_energy">    -22.00992912 </i>
   </energy>
  </scstep>
  <scstep>
   <time name="dav">    1.47    1.47</time>
   <time name="total">    2.03    2.03</time>
   <energy>
    <i name="e_fr_energy">    -24.81979437 </i>
    <i name="e_wo_entrp">    -24.81979437 </i>
    <i name="e_0_energy">    -24.81979437 </i>
   </energy>
  </scstep>
  <scstep>
   <time name="dav">    1.28    1.28</time>
   <time name="total">    1.83    1.83</time>
   <energy>
    <i name="e_fr_energy">    -21.77750790 </i>
    <i name="e_wo_entrp">    -21.77750790 </i>
    <i name="e_0_energy">    -21.77750790 </i>
   </energy>
  </scstep>
  <scstep>
   <time name="dav">    1.32    1.32</time>
   <time name="total">    1.86    1.86</time>
   <energy>
    <i name="e_fr_energy">    -21.82274829 </i>
    <i name="e_wo_entrp">    -21.82274829 </i>
    <i name="e_0_energy">    -21.82274829 </i>
   </energy>
  </scstep>
  <scstep>
   <time name="dav">    1.30    1.31</time>
   <time name="total">    1.87    1.87</time>
   <energy>
    <i name="e_fr_energy">    -24.11152586 </i>
    <i name="e_wo_entrp">    -24.11152586 </i>
    <i name="e_0_energy">    -24.11152586 </i>
   </energy>
  </scstep>
  <scstep>
   <time name="dav">    1.27    1.27</time>
   <time name="total">    1.82    1.82</time>
   <energy>
    <i name="e_fr_energy">    -20.90165525 </i>
    <i name="e_wo_entrp">    -20.90165525 </i>
    <i name="e_0_energy">    -20.90165525 </i>
   </energy>
  </scstep>
  <scstep>
   <time name="dav">    1.27    1.27</time>
   <time name="total">    1.82    1.82</time>
   <energy>
    <i name="e_fr_energy">    -21.88408421 </i>
    <i name="e_wo_entrp">    -21.88408421 </i>
    <i name="e_0_energy">    -21.88408421 </i>
   </energy>
  </scstep>
  <scstep>
   <time name="dav">    1.34    1.34</time>
   <time name="total">    1.89    1.89</time>
   <energy>
    <i name="e_fr_energy">    -22.15333386 </i>
    <i name="e_wo_entrp">    -22.15333386 </i>
    <i name="e_0_energy">    -22.15333386 </i>
   </energy>
  </scstep>
  <scstep>
   <time name="dav">    1.34    1.34</time>
   <time name="total">    1.89    1.90</time>
   <energy>
    <i name="e_fr_energy">    -22.05890962 </i>
    <i name="e_wo_entrp">    -22.05890962 </i>
    <i name="e_0_energy">    -22.05890962 </i>
   </energy>
  </scstep>
  <scstep>
   <time name="dav">    1.28    1.28</time>
   <time name="total">    1.83    1.83</time>
   <energy>
    <i name="e_fr_energy">    -22.49441923 </i>
    <i name="e_wo_entrp">    -22.49441923 </i>
    <i name="e_0_energy">    -22.49441923 </i>
   </energy>
  </scstep>
  <scstep>
   <time name="dav">    1.34    1.34</time>
   <time name="total">    1.89    1.89</time>
   <energy>
    <i name="e_fr_energy">    -22.29600599 </i>
    <i name="e_wo_entrp">    -22.29600599 </i>
    <i name="e_0_energy">    -22.29600599 </i>
   </energy>
  </scstep>
  <scstep>
   <time name="dav">    1.27    1.27</time>
   <time name="total">    1.81    1.81</time>
   <energy>
    <i name="e_fr_energy">    -19.90371679 </i>
    <i name="e_wo_entrp">    -19.90371679 </i>
    <i name="e_0_energy">    -19.90371679 </i>
   </energy>
  </scstep>
  <scstep>
   <time name="dav">    1.28    1.28</time>
   <time name="total">    1.83    1.83</time>
   <energy>
    <i name="e_fr_energy">    -20.43888647 </i>
    <i name="e_wo_entrp">    -20.43888647 </i>
    <i name="e_0_energy">    -20.43888647 </i>
   </energy>
  </scstep>
  <scstep>
   <time name="dav">    1.34    1.34</time>
   <time name="total">    1.89    1.90</time>
   <energy>
    <i name="e_fr_energy">    -20.65789784 </i>
    <i name="e_wo_entrp">    -20.65789784 </i>
    <i name="e_0_energy">    -20.65789784 </i>
   </energy>
  </scstep>
  <scstep>
   <time name="dav">    1.30    1.30</time>
   <time name="total">    1.86    1.86</time>
   <energy>
    <i name="e_fr_energy">    -20.35802377 </i>
    <i name="e_wo_entrp">    -20.35802377 </i>
    <i name="e_0_energy">    -20.35802377 </i>
   </energy>
  </scstep>
  <scstep>
   <time name="dav">    1.30    1.30</time>
   <time name="total">    1.85    1.86</time>
   <energy>
    <i name="e_fr_energy">    -20.02306928 </i>
    <i name="e_wo_entrp">    -20.02306928 </i>
    <i name="e_0_energy">    -20.02306928 </i>
   </energy>
  </scstep>
  <scstep>
   <time name="dav">    2.03    2.03</time>
   <time name="total">    2.57    2.57</time>
   <energy>
    <i name="e_fr_energy">    -19.32595610 </i>
    <i name="e_wo_entrp">    -19.32595610 </i>
    <i name="e_0_energy">    -19.32595610 </i>
   </energy>
  </scstep>
  <scstep>
   <time name="dav">    1.36    1.36</time>
   <time name="total">    1.90    1.90</time>
   <energy>
    <i name="e_fr_energy">    -18.42375740 </i>
    <i name="e_wo_entrp">    -18.42375740 </i>
    <i name="e_0_energy">    -18.42375740 </i>
   </energy>
  </scstep>
  <scstep>
   <time name="dav">    1.95    1.95</time>
   <time name="total">    2.48    2.48</time>
   <energy>
    <i name="e_fr_energy">    -18.22393020 </i>
    <i name="e_wo_entrp">    -18.22393020 </i>
    <i name="e_0_energy">    -18.22393020 </i>
   </energy>
  </scstep>
  <scstep>
   <time name="dav">    1.67    1.67</time>
   <time name="total">    2.20    2.21</time>
   <energy>
    <i name="e_fr_energy">    -18.03563059 </i>
    <i name="e_wo_entrp">    -18.03563059 </i>
    <i name="e_0_energy">    -18.03563059 </i>
   </energy>
  </scstep>
  <scstep>
   <time name="dav">    1.82    1.83</time>
   <time name="total">    2.37    2.37</time>
   <energy>
    <i name="e_fr_energy">    -17.86818468 </i>
    <i name="e_wo_entrp">    -17.86818468 </i>
    <i name="e_0_energy">    -17.86818468 </i>
   </energy>
  </scstep>
  <scstep>
   <time name="dav">    1.84    1.84</time>
   <time name="total">    2.39    2.39</time>
   <energy>
    <i name="e_fr_energy">    -18.27532675 </i>
    <i name="e_wo_entrp">    -18.27532675 </i>
    <i name="e_0_energy">    -18.27532675 </i>
   </energy>
  </scstep>
  <scstep>
   <time name="dav">    1.55    1.55</time>
   <time name="total">    2.10    2.10</time>
   <energy>
    <i name="e_fr_energy">    -20.64943102 </i>
    <i name="e_wo_entrp">    -20.64943102 </i>
    <i name="e_0_energy">    -20.64943102 </i>
   </energy>
  </scstep>
  <scstep>
   <time name="dav">    1.49    1.49</time>
   <time name="total">    2.03    2.03</time>
   <energy>
    <i name="e_fr_energy">    -18.02473994 </i>
    <i name="e_wo_entrp">    -18.02473994 </i>
    <i name="e_0_energy">    -18.02473994 </i>
   </energy>
  </scstep>
  <scstep>
   <time name="dav">    1.67    1.67</time>
   <time name="total">    2.21    2.21</time>
   <energy>
    <i name="e_fr_energy">    -17.93752895 </i>
    <i name="e_wo_entrp">    -17.93752895 </i>
    <i name="e_0_energy">    -17.93752895 </i>
   </energy>
  </scstep>
  <scstep>
   <time name="dav">    1.58    1.58</time>
   <time name="total">    2.12    2.12</time>
   <energy>
    <i name="e_fr_energy">    -18.10129740 </i>
    <i name="e_wo_entrp">    -18.10129740 </i>
    <i name="e_0_energy">    -18.10129740 </i>
   </energy>
  </scstep>
  <scstep>
   <time name="dav">    1.38    1.38</time>
   <time name="total">    1.92    1.92</time>
   <energy>
    <i name="e_fr_energy">    -18.77341790 </i>
    <i name="e_wo_entrp">    -18.77341790 </i>
    <i name="e_0_energy">    -18.77341790 </i>
   </energy>
  </scstep>
  <scstep>
   <time name="dav">    1.35    1.35</time>
   <time name="total">    1.91    1.91</time>
   <energy>
    <i name="e_fr_energy">    -20.93123213 </i>
    <i name="e_wo_entrp">    -20.93123213 </i>
    <i name="e_0_energy">    -20.93123213 </i>
   </energy>
  </scstep>
  <scstep>
   <time name="dav">    1.37    1.37</time>
   <time name="total">    1.91    1.91</time>
   <energy>
    <i name="e_fr_energy">    -18.96270447 </i>
    <i name="e_wo_entrp">    -18.96270447 </i>
    <i name="e_0_energy">    -18.96270447 </i>
   </energy>
  </scstep>
  <scstep>
   <time name="dav">    1.32    1.32</time>
   <time name="total">    1.86    1.87</time>
   <energy>
    <i name="e_fr_energy">    -19.27367489 </i>
    <i name="e_wo_entrp">    -19.27367489 </i>
    <i name="e_0_energy">    -19.27367489 </i>
   </energy>
  </scstep>
  <scstep>
   <time name="dav">    1.34    1.34</time>
   <time name="total">    1.88    1.88</time>
   <energy>
    <i name="e_fr_energy">    -19.06147624 </i>
    <i name="e_wo_entrp">    -19.06147624 </i>
    <i name="e_0_energy">    -19.06147624 </i>
   </energy>
  </scstep>
  <scstep>
   <time name="dav">    1.35    1.35</time>
   <time name="total">    1.89    1.89</time>
   <energy>
    <i name="e_fr_energy">    -18.28258686 </i>
    <i name="e_wo_entrp">    -18.28258686 </i>
    <i name="e_0_energy">    -18.28258686 </i>
   </energy>
  </scstep>
  <scstep>
   <time name="dav">    1.46    1.47</time>
   <time name="total">    2.00    2.00</time>
   <energy>
    <i name="e_fr_energy">    -17.97779337 </i>
    <i name="e_wo_entrp">    -17.97779337 </i>
    <i name="e_0_energy">    -17.97779337 </i>
   </energy>
  </scstep>
  <scstep>
   <time name="dav">    1.37    1.37</time>
   <time name="total">    1.91    1.91</time>
   <energy>
    <i name="e_fr_energy">    -18.04227875 </i>
    <i name="e_wo_entrp">    -18.04227875 </i>
    <i name="e_0_energy">    -18.04227875 </i>
   </energy>
  </scstep>
  <scstep>
   <time name="dav">    1.41    1.41</time>
   <time name="total">    1.95    1.95</time>
   <energy>
    <i name="e_fr_energy">    -18.09250172 </i>
    <i name="e_wo_entrp">    -18.09250172 </i>
    <i name="e_0_energy">    -18.09250172 </i>
   </energy>
  </scstep>
  <scstep>
   <time name="dav">    1.41    1.41</time>
   <time name="total">    1.95    1.95</time>
   <energy>
    <i name="e_fr_energy">    -17.97381449 </i>
    <i name="e_wo_entrp">    -17.97381449 </i>
    <i name="e_0_energy">    -17.97381449 </i>
   </energy>
  </scstep>
  <scstep>
   <time name="dav">    1.32    1.32</time>
   <time name="total">    1.86    1.86</time>
   <energy>
    <i name="e_fr_energy">    -18.03206008 </i>
    <i name="e_wo_entrp">    -18.03206008 </i>
    <i name="e_0_energy">    -18.03206008 </i>
   </energy>
  </scstep>
  <scstep>
   <time name="dav">    1.35    1.35</time>
   <time name="total">    1.89    1.89</time>
   <energy>
    <i name="e_fr_energy">    -18.02814298 </i>
    <i name="e_wo_entrp">    -18.02814298 </i>
    <i name="e_0_energy">    -18.02814298 </i>
   </energy>
  </scstep>
  <scstep>
   <time name="dav">    1.45    1.45</time>
   <time name="total">    1.98    1.98</time>
   <energy>
    <i name="e_fr_energy">    -18.04252684 </i>
    <i name="e_wo_entrp">    -18.04252684 </i>
    <i name="e_0_energy">    -18.04252684 </i>
   </energy>
  </scstep>
  <scstep>
   <time name="dav">    1.26    1.26</time>
   <time name="total">    1.80    1.81</time>
   <energy>
    <i name="e_fr_energy">    -18.19722635 </i>
    <i name="e_wo_entrp">    -18.19722635 </i>
    <i name="e_0_energy">    -18.19722635 </i>
   </energy>
  </scstep>
  <scstep>
   <time name="dav">    1.35    1.36</time>
   <time name="total">    1.90    1.90</time>
   <energy>
    <i name="e_fr_energy">    -18.13967675 </i>
    <i name="e_wo_entrp">    -18.13967675 </i>
    <i name="e_0_energy">    -18.13967675 </i>
   </energy>
  </scstep>
  <scstep>
   <time name="dav">    1.26    1.26</time>
   <time name="total">    1.80    1.80</time>
   <energy>
    <i name="e_fr_energy">    -18.30673482 </i>
    <i name="e_wo_entrp">    -18.30673482 </i>
    <i name="e_0_energy">    -18.30673482 </i>
   </energy>
  </scstep>
  <scstep>
   <time name="dav">    1.28    1.28</time>
   <time name="total">    1.83    1.83</time>
   <energy>
    <i name="e_fr_energy">    -18.31863360 </i>
    <i name="e_wo_entrp">    -18.31863360 </i>
    <i name="e_0_energy">    -18.31863360 </i>
   </energy>
  </scstep>
  <scstep>
   <time name="dav">    1.30    1.30</time>
   <time name="total">    1.84    1.84</time>
   <energy>
    <i name="e_fr_energy">    -18.28302898 </i>
    <i name="e_wo_entrp">    -18.28302898 </i>
    <i name="e_0_energy">    -18.28302898 </i>
   </energy>
  </scstep>
  <scstep>
   <time name="dav">    1.39    1.39</time>
   <time name="total">    1.93    1.93</time>
   <energy>
    <i name="e_fr_energy">    -18.26930620 </i>
    <i name="e_wo_entrp">    -18.26930620 </i>
    <i name="e_0_energy">    -18.26930620 </i>
   </energy>
  </scstep>
  <scstep>
   <time name="dav">    1.43    1.43</time>
   <time name="total">    1.97    1.97</time>
   <energy>
    <i name="e_fr_energy">    -18.25293069 </i>
    <i name="e_wo_entrp">    -18.25293069 </i>
    <i name="e_0_energy">    -18.25293069 </i>
   </energy>
  </scstep>
  <scstep>
   <time name="dav">    1.34    1.34</time>
   <time name="total">    1.88    1.88</time>
   <energy>
    <i name="e_fr_energy">    -18.37611145 </i>
    <i name="e_wo_entrp">    -18.37611145 </i>
    <i name="e_0_energy">    -18.37611145 </i>
   </energy>
  </scstep>
  <scstep>
   <time name="dav">    1.30    1.30</time>
   <time name="total">    1.84    1.84</time>
   <energy>
    <i name="e_fr_energy">    -18.32244519 </i>
    <i name="e_wo_entrp">    -18.32244519 </i>
    <i name="e_0_energy">    -18.32244519 </i>
   </energy>
  </scstep>
  <scstep>
   <time name="dav">    1.34    1.34</time>
   <time name="total">    1.88    1.88</time>
   <energy>
    <i name="e_fr_energy">    -18.20712640 </i>
    <i name="e_wo_entrp">    -18.20712640 </i>
    <i name="e_0_energy">    -18.20712640 </i>
   </energy>
  </scstep>
  <scstep>
   <time name="dav">    1.37    1.37</time>
   <time name="total">    1.92    1.92</time>
   <energy>
    <i name="e_fr_energy">    -18.24795526 </i>
    <i name="e_wo_entrp">    -18.24795526 </i>
    <i name="e_0_energy">    -18.24795526 </i>
   </energy>
  </scstep>
  <scstep>
   <time name="dav">    1.38    1.38</time>
   <time name="total">    1.92    1.92</time>
   <energy>
    <i name="e_fr_energy">    -18.24738449 </i>
    <i name="e_wo_entrp">    -18.24738449 </i>
    <i name="e_0_energy">    -18.24738449 </i>
   </energy>
  </scstep>
  <scstep>
   <time name="dav">    1.30    1.31</time>
   <time name="total">    1.85    1.85</time>
   <energy>
    <i name="e_fr_energy">    -18.04861252 </i>
    <i name="e_wo_entrp">    -18.04861252 </i>
    <i name="e_0_energy">    -18.04861252 </i>
   </energy>
  </scstep>
  <scstep>
   <time name="dav">    1.34    1.34</time>
   <time name="total">    1.88    1.89</time>
   <energy>
    <i name="e_fr_energy">    -18.03935463 </i>
    <i name="e_wo_entrp">    -18.03935463 </i>
    <i name="e_0_energy">    -18.03935463 </i>
   </energy>
  </scstep>
  <scstep>
   <time name="dav">    1.47    1.47</time>
   <time name="total">    2.01    2.01</time>
   <energy>
    <i name="e_fr_energy">    -17.97759428 </i>
    <i name="e_wo_entrp">    -17.97759428 </i>
    <i name="e_0_energy">    -17.97759428 </i>
   </energy>
  </scstep>
  <scstep>
   <time name="dav">    1.27    1.27</time>
   <time name="total">    1.81    1.81</time>
   <energy>
    <i name="e_fr_energy">    -17.97448597 </i>
    <i name="e_wo_entrp">    -17.97448597 </i>
    <i name="e_0_energy">    -17.97448597 </i>
   </energy>
  </scstep>
  <scstep>
   <time name="dav">    1.42    1.42</time>
   <time name="total">    1.97    1.97</time>
   <energy>
    <i name="e_fr_energy">    -17.96751541 </i>
    <i name="e_wo_entrp">    -17.96751541 </i>
    <i name="e_0_energy">    -17.96751541 </i>
   </energy>
  </scstep>
  <scstep>
   <time name="dav">    1.35    1.35</time>
   <time name="total">    1.89    1.89</time>
   <energy>
    <i name="e_fr_energy">    -18.05945078 </i>
    <i name="e_wo_entrp">    -18.05945078 </i>
    <i name="e_0_energy">    -18.05945078 </i>
   </energy>
  </scstep>
  <scstep>
   <time name="dav">    1.27    1.27</time>
   <time name="total">    1.81    1.81</time>
   <energy>
    <i name="e_fr_energy">    -18.11681522 </i>
    <i name="e_wo_entrp">    -18.11681522 </i>
    <i name="e_0_energy">    -18.11681522 </i>
   </energy>
  </scstep>
  <scstep>
   <time name="dav">    1.40    1.40</time>
   <time name="total">    1.94    1.94</time>
   <energy>
    <i name="e_fr_energy">    -18.11774056 </i>
    <i name="e_wo_entrp">    -18.11774056 </i>
    <i name="e_0_energy">    -18.11774056 </i>
   </energy>
  </scstep>
  <scstep>
   <time name="dav">    1.33    1.33</time>
   <time name="total">    1.87    1.87</time>
   <energy>
    <i name="e_fr_energy">    -18.11880850 </i>
    <i name="e_wo_entrp">    -18.11880850 </i>
    <i name="e_0_energy">    -18.11880850 </i>
   </energy>
  </scstep>
  <scstep>
   <time name="dav">    1.37    1.37</time>
   <time name="total">    1.92    1.92</time>
   <energy>
    <i name="e_fr_energy">    -18.11446259 </i>
    <i name="e_wo_entrp">    -18.11446259 </i>
    <i name="e_0_energy">    -18.11446259 </i>
   </energy>
  </scstep>
  <scstep>
   <time name="dav">    1.38    1.38</time>
   <time name="total">    1.92    1.92</time>
   <energy>
    <i name="e_fr_energy">    -18.14240062 </i>
    <i name="e_wo_entrp">    -18.14240062 </i>
    <i name="e_0_energy">    -18.14240062 </i>
   </energy>
  </scstep>
  <scstep>
   <time name="dav">    1.34    1.34</time>
   <time name="total">    1.89    1.89</time>
   <energy>
    <i name="e_fr_energy">    -18.14221750 </i>
    <i name="e_wo_entrp">    -18.14221750 </i>
    <i name="e_0_energy">    -18.14221750 </i>
   </energy>
  </scstep>
  <scstep>
   <time name="dav">    1.38    1.38</time>
   <time name="total">    1.92    1.92</time>
   <energy>
    <i name="e_fr_energy">    -18.13242407 </i>
    <i name="e_wo_entrp">    -18.13242407 </i>
    <i name="e_0_energy">    -18.13242407 </i>
   </energy>
  </scstep>
  <scstep>
   <time name="dav">    1.42    1.42</time>
   <time name="total">    1.96    1.97</time>
   <energy>
    <i name="e_fr_energy">    -18.12764207 </i>
    <i name="e_wo_entrp">    -18.12764207 </i>
    <i name="e_0_energy">    -18.12764207 </i>
   </energy>
  </scstep>
  <scstep>
   <time name="dav">    1.26    1.26</time>
   <time name="total">    1.81    1.81</time>
   <energy>
    <i name="e_fr_energy">    -18.12840845 </i>
    <i name="e_wo_entrp">    -18.12840845 </i>
    <i name="e_0_energy">    -18.12840845 </i>
   </energy>
  </scstep>
  <scstep>
   <time name="dav">    1.38    1.38</time>
   <time name="total">    1.92    1.92</time>
   <energy>
    <i name="e_fr_energy">    -18.09148554 </i>
    <i name="e_wo_entrp">    -18.09148554 </i>
    <i name="e_0_energy">    -18.09148554 </i>
   </energy>
  </scstep>
  <scstep>
   <time name="dav">    1.51    1.51</time>
   <time name="total">    2.05    2.05</time>
   <energy>
    <i name="e_fr_energy">    -18.07211615 </i>
    <i name="e_wo_entrp">    -18.07211615 </i>
    <i name="e_0_energy">    -18.07211615 </i>
   </energy>
  </scstep>
  <scstep>
   <time name="dav">    1.47    1.48</time>
   <time name="total">    2.01    2.02</time>
   <energy>
    <i name="e_fr_energy">    -17.91828781 </i>
    <i name="e_wo_entrp">    -17.91828781 </i>
    <i name="e_0_energy">    -17.91828781 </i>
   </energy>
  </scstep>
  <scstep>
   <time name="dav">    1.34    1.34</time>
   <time name="total">    1.87    1.87</time>
   <energy>
    <i name="e_fr_energy">    -17.84922705 </i>
    <i name="e_wo_entrp">    -17.84922705 </i>
    <i name="e_0_energy">    -17.84922705 </i>
   </energy>
  </scstep>
  <scstep>
   <time name="dav">    1.62    1.62</time>
   <time name="total">    2.15    2.15</time>
   <energy>
    <i name="e_fr_energy">    -17.76813371 </i>
    <i name="e_wo_entrp">    -17.76813371 </i>
    <i name="e_0_energy">    -17.76813371 </i>
   </energy>
  </scstep>
  <scstep>
   <time name="dav">    1.45    1.45</time>
   <time name="total">    1.97    1.98</time>
   <energy>
    <i name="e_fr_energy">    -17.72127556 </i>
    <i name="e_wo_entrp">    -17.72127556 </i>
    <i name="e_0_energy">    -17.72127556 </i>
   </energy>
  </scstep>
  <scstep>
   <time name="dav">    1.53    1.53</time>
   <time name="total">    2.05    2.05</time>
   <energy>
    <i name="e_fr_energy">    -17.70430058 </i>
    <i name="e_wo_entrp">    -17.70430058 </i>
    <i name="e_0_energy">    -17.70430058 </i>
   </energy>
  </scstep>
  <scstep>
   <time name="dav">    1.61    1.61</time>
   <time name="total">    2.13    2.13</time>
   <energy>
    <i name="e_fr_energy">    -17.68366156 </i>
    <i name="e_wo_entrp">    -17.68366156 </i>
    <i name="e_0_energy">    -17.68366156 </i>
   </energy>
  </scstep>
  <scstep>
   <time name="dav">    1.60    1.60</time>
   <time name="total">    2.12    2.12</time>
   <energy>
    <i name="e_fr_energy">    -17.66552231 </i>
    <i name="e_wo_entrp">    -17.66552231 </i>
    <i name="e_0_energy">    -17.66552231 </i>
   </energy>
  </scstep>
  <scstep>
   <time name="dav">    1.36    1.36</time>
   <time name="total">    1.88    1.88</time>
   <energy>
    <i name="e_fr_energy">    -17.65395688 </i>
    <i name="e_wo_entrp">    -17.65395688 </i>
    <i name="e_0_energy">    -17.65395688 </i>
   </energy>
  </scstep>
  <scstep>
   <time name="dav">    1.37    1.37</time>
   <time name="total">    1.89    1.89</time>
   <energy>
    <i name="e_fr_energy">    -17.63774555 </i>
    <i name="e_wo_entrp">    -17.63774555 </i>
    <i name="e_0_energy">    -17.63774555 </i>
   </energy>
  </scstep>
  <scstep>
   <time name="dav">    1.47    1.47</time>
   <time name="total">    1.99    1.99</time>
   <energy>
    <i name="e_fr_energy">    -17.62767527 </i>
    <i name="e_wo_entrp">    -17.62767527 </i>
    <i name="e_0_energy">    -17.62767527 </i>
   </energy>
  </scstep>
  <scstep>
   <time name="dav">    1.41    1.41</time>
   <time name="total">    1.93    1.93</time>
   <energy>
    <i name="e_fr_energy">    -17.61900911 </i>
    <i name="e_wo_entrp">    -17.61900911 </i>
    <i name="e_0_energy">    -17.61900911 </i>
   </energy>
  </scstep>
  <scstep>
   <time name="dav">    1.48    1.48</time>
   <time name="total">    2.01    2.01</time>
   <energy>
    <i name="e_fr_energy">    -17.61091180 </i>
    <i name="e_wo_entrp">    -17.61091180 </i>
    <i name="e_0_energy">    -17.61091180 </i>
   </energy>
  </scstep>
  <scstep>
   <time name="dav">    1.48    1.48</time>
   <time name="total">    2.00    2.00</time>
   <energy>
    <i name="e_fr_energy">    -17.60479289 </i>
    <i name="e_wo_entrp">    -17.60479289 </i>
    <i name="e_0_energy">    -17.60479289 </i>
   </energy>
  </scstep>
  <scstep>
   <time name="dav">    1.54    1.54</time>
   <time name="total">    2.06    2.06</time>
   <energy>
    <i name="e_fr_energy">    -17.60012419 </i>
    <i name="e_wo_entrp">    -17.60012419 </i>
    <i name="e_0_energy">    -17.60012419 </i>
   </energy>
  </scstep>
  <scstep>
   <time name="dav">    1.63    1.64</time>
   <time name="total">    2.16    2.16</time>
   <energy>
    <i name="e_fr_energy">    -17.59830858 </i>
    <i name="e_wo_entrp">    -17.59830858 </i>
    <i name="e_0_energy">    -17.59830858 </i>
   </energy>
  </scstep>
  <scstep>
   <time name="dav">    1.63    1.63</time>
   <time name="total">    2.15    2.15</time>
   <energy>
    <i name="e_fr_energy">    -17.59767220 </i>
    <i name="e_wo_entrp">    -17.59767220 </i>
    <i name="e_0_energy">    -17.59767220 </i>
   </energy>
  </scstep>
  <scstep>
   <time name="dav">    1.76    1.76</time>
   <time name="total">    2.28    2.28</time>
   <energy>
    <i name="e_fr_energy">    -17.59744431 </i>
    <i name="e_wo_entrp">    -17.59744431 </i>
    <i name="e_0_energy">    -17.59744431 </i>
   </energy>
  </scstep>
  <scstep>
   <time name="dav">    1.74    1.74</time>
   <time name="total">    2.26    2.26</time>
   <energy>
    <i name="e_fr_energy">    -17.59733564 </i>
    <i name="e_wo_entrp">    -17.59733564 </i>
    <i name="e_0_energy">    -17.59733564 </i>
   </energy>
  </scstep>
  <scstep>
   <time name="dav">    1.46    1.46</time>
   <time name="total">    1.86    1.86</time>
   <energy>
    <i name="alphaZ">      3.26364691 </i>
    <i name="ewald">   1226.38767898 </i>
    <i name="hartreedc">  -1517.88717013 </i>
    <i name="XCdc">     28.34574469 </i>
    <i name="pawpsdc">    930.07859892 </i>
    <i name="pawaedc">   -930.81048788 </i>
    <i name="eentropy">      0.00000000 </i>
    <i name="bandstr">    -92.68061213 </i>
    <i name="atom">    335.70528947 </i>
    <i name="e_fr_energy">    -17.59731117 </i>
    <i name="e_wo_entrp">    -17.59731117 </i>
    <i name="e_0_energy">    -17.59731117 </i>
   </energy>
  </scstep>
  <structure>
   <crystal>
    <varray name="basis" >
     <v>       2.50899500       0.00000000       0.00000000 </v>
     <v>      -1.25449800       2.17285400       0.00000000 </v>
     <v>       0.00000000       0.00000000      20.00000000 </v>
    </varray>
    <i name="volume">    109.03359643 </i>
    <varray name="rec_basis" >
     <v>       0.39856596       0.23011219       0.00000000 </v>
     <v>       0.00000000       0.46022420       0.00000000 </v>
     <v>       0.00000000       0.00000000       0.05000000 </v>
    </varray>
   </crystal>
   <varray name="positions" >
    <v>       0.00000000       0.00000000       0.50000000 </v>
    <v>       0.33333300       0.66666700       0.50000000 </v>
   </varray>
  </structure>
  <varray name="forces" >
   <v>       0.00000000       0.00000000       0.00000000 </v>
   <v>      -0.00000000      -0.00000000       0.00000000 </v>
  </varray>
  <varray name="stress" >
   <v>       2.62824976      -0.00000060       0.00000000 </v>
   <v>      -0.00000060       2.62825119       0.00000000 </v>
   <v>      -0.00000000       0.00000000      -0.33068356 </v>
  </varray>
  <energy>
   <i name="e_fr_energy">    -17.59731117 </i>
   <i name="e_wo_entrp">    -17.59731117 </i>
   <i name="e_0_energy">      0.00000000 </i>
  </energy>
  <time name="totalsc">  265.45  265.63</time>
  <eigenvalues>
   <array>
    <dimension dim="1">band</dimension>
    <dimension dim="2">kpoint</dimension>
    <dimension dim="3">spin</dimension>
    <field>eigene</field>
    <field>occ</field>
    <set>
     <set comment="spin 1">
      <set comment="kpoint 1">
       <r>  -22.0998    1.0000 </r>
       <r>   -9.6870    1.0000 </r>
       <r>   -5.8080    1.0000 </r>
       <r>   -5.8080    1.0000 </r>
       <r>    0.2177    0.0000 </r>
       <r>    1.1106    0.0000 </r>
       <r>    1.4794    0.0000 </r>
       <r>    2.3515    0.0000 </r>
      </set>
      <set comment="kpoint 2">
       <r>  -22.0019    1.0000 </r>
       <r>   -9.5556    1.0000 </r>
       <r>   -6.2236    1.0000 </r>
       <r>   -5.9995    1.0000 </r>
       <r>    0.3868    0.0000 </r>
       <r>    1.2663    0.0000 </r>
       <r>    1.6426    0.0000 </r>
       <r>    2.5067    0.0000 </r>
      </set>
      <set comment="kpoint 3">
       <r>  -21.7121    1.0000 </r>
       <r>   -9.1658    1.0000 </r>
       <r>   -7.3134    1.0000 </r>
       <r>   -6.4898    1.0000 </r>
       <r>    0.8775    0.0000 </r>
       <r>    1.7283    0.0000 </r>
       <r>    2.1304    0.0000 </r>
       <r>    2.9661    0.0000 </r>
      </set>
      <set comment="kpoint 4">
       <r>  -21.2439    1.0000 </r>
       <r>   -8.7720    1.0000 </r>
       <r>   -8.5324    1.0000 </r>
       <r>   -7.1072    1.0000 </r>
       <r>    1.6667    0.0000 </r>
       <r>    2.4644    0.0000 </r>
       <r>    2.9396    0.0000 </r>
       <r>    3.6832    0.0000 </r>
      </set>
      <set comment="kpoint 5">
       <r>  -20.6278    1.0000 </r>
       <r>  -10.3338    1.0000 </r>
       <r>   -7.7024    1.0000 </r>
       <r>   -7.6891    1.0000 </r>
       <r>    2.7334    0.0000 </r>
       <r>    3.0884    0.0000 </r>
       <r>    4.0659    0.0000 </r>
       <r>    4.2267    0.0000 </r>
      </set>
      <set comment="kpoint 6">
       <r>  -19.9309    1.0000 </r>
       <r>  -11.7851    1.0000 </r>
       <r>   -8.1792    1.0000 </r>
       <r>   -6.7126    1.0000 </r>
       <r>    2.1249    0.0000 </r>
       <r>    4.0021    0.0000 </r>
       <r>    5.2834    0.0000 </r>
       <r>    5.4645    0.0000 </r>
      </set>
      <set comment="kpoint 7">
       <r>  -19.3044    1.0000 </r>
       <r>  -12.8917    1.0000 </r>
       <r>   -8.4833    1.0000 </r>
       <r>   -5.7939    1.0000 </r>
       <r>    0.8756    0.0000 </r>
       <r>    5.0125    0.0000 </r>
       <r>    6.5253    0.0000 </r>
       <r>    7.3593    0.0000 </r>
      </set>
      <set comment="kpoint 8">
       <r>  -19.0301    1.0000 </r>
       <r>  -13.3303    1.0000 </r>
       <r>   -8.5873    1.0000 </r>
       <r>   -5.3681    1.0000 </r>
       <r>    0.3159    0.0000 </r>
       <r>    5.2310    0.0000 </r>
       <r>    7.9869    0.0000 </r>
       <r>    8.4246    0.0000 </r>
      </set>
      <set comment="kpoint 9">
       <r>  -21.8080    1.0000 </r>
       <r>   -9.2950    1.0000 </r>
       <r>   -6.9368    1.0000 </r>
       <r>   -6.3799    1.0000 </r>
       <r>    0.7170    0.0000 </r>
       <r>    1.5753    0.0000 </r>
       <r>    1.9682    0.0000 </r>
       <r>    2.8143    0.0000 </r>
      </set>
      <set comment="kpoint 10">
       <r>  -21.4285    1.0000 </r>
       <r>   -8.7828    1.0000 </r>
       <r>   -8.1382    1.0000 </r>
       <r>   -7.0072    1.0000 </r>
       <r>    1.3594    0.0000 </r>
       <r>    2.1784    0.0000 </r>
       <r>    2.6172    0.0000 </r>
       <r>    3.4093    0.0000 </r>
      </set>
      <set comment="kpoint 11">
       <r>  -20.8843    1.0000 </r>
       <r>   -9.5958    1.0000 </r>
       <r>   -8.0421    1.0000 </r>
       <r>   -7.6681    1.0000 </r>
       <r>    2.2959    0.0000 </r>
       <r>    2.9587    0.0000 </r>
       <r>    3.5870    0.0000 </r>
       <r>    4.1020    0.0000 </r>
      </set>
      <set comment="kpoint 12">
       <r>  -20.2206    1.0000 </r>
       <r>  -11.0772    1.0000 </r>
       <r>   -8.2354    1.0000 </r>
       <r>   -7.1234    1.0000 </r>
       <r>    2.7240    0.0000 </r>
       <r>    3.4979    0.0000 </r>
       <r>    4.7243    0.0000 </r>
       <r>    4.8703    0.0000 </r>
      </set>
      <set comment="kpoint 13">
       <r>  -19.5385    1.0000 </r>
       <r>  -12.3594    1.0000 </r>
       <r>   -8.6416    1.0000 </r>
       <r>   -6.1465    1.0000 </r>
       <r>    1.4495    0.0000 </r>
       <r>    4.8255    0.0000 </r>
       <r>    6.1779    0.0000 </r>
       <r>    6.2881    0.0000 </r>
      </set>
      <set comment="kpoint 14">
       <r>  -19.0537    1.0000 </r>
       <r>  -13.1591    1.0000 </r>
       <r>   -8.8521    1.0000 </r>
       <r>   -5.4109    1.0000 </r>
       <r>    0.4779    0.0000 </r>
       <r>    5.5762    0.0000 </r>
       <r>    7.4129    0.0000 </r>
       <r>    8.4710    0.0000 </r>
      </set>
      <set comment="kpoint 15">
       <r>  -20.9716    1.0000 </r>
       <r>   -9.2075    1.0000 </r>
       <r>   -8.1618    1.0000 </r>
       <r>   -7.8107    1.0000 </r>
       <r>    2.1542    0.0000 </r>
       <r>    2.8589    0.0000 </r>
       <r>    3.4278    0.0000 </r>
       <r>    4.0346    0.0000 </r>
      </set>
      <set comment="kpoint 16">
       <r>  -20.3730    1.0000 </r>
       <r>  -10.4518    1.0000 </r>
       <r>   -8.5828    1.0000 </r>
       <r>   -7.3377    1.0000 </r>
       <r>    3.0474    0.0000 </r>
       <r>    3.2442    0.0000 </r>
       <r>    4.5000    0.0000 </r>
       <r>    4.5596    0.0000 </r>
      </set>
      <set comment="kpoint 17">
       <r>  -19.7013    1.0000 </r>
       <r>  -11.7048    1.0000 </r>
       <r>   -9.1604    1.0000 </r>
       <r>   -6.3884    1.0000 </r>
       <r>    1.9874    0.0000 </r>
       <r>    4.5951    0.0000 </r>
       <r>    5.7159    0.0000 </r>
       <r>    6.0042    0.0000 </r>
      </set>
      <set comment="kpoint 18">
       <r>  -19.1049    1.0000 </r>
       <r>  -12.6975    1.0000 </r>
       <r>   -9.5102    1.0000 </r>
       <r>   -5.5022    1.0000 </r>
       <r>    0.8611    0.0000 </r>
       <r>    6.0350    0.0000 </r>
       <r>    7.3340    0.0000 </r>
       <r>    7.4714    0.0000 </r>
      </set>
      <set comment="kpoint 19">
       <r>  -18.8472    1.0000 </r>
       <r>  -13.0947    1.0000 </r>
       <r>   -9.6272    1.0000 </r>
       <r>   -5.0947    1.0000 </r>
       <r>    0.3562    0.0000 </r>
       <r>    6.6717    0.0000 </r>
       <r>    8.4017    0.0000 </r>
       <r>    9.0208    0.0000 </r>
      </set>
      <set comment="kpoint 20">
       <r>  -19.7591    1.0000 </r>
       <r>  -11.3195    1.0000 </r>
       <r>   -9.5208    1.0000 </r>
       <r>   -6.4738    1.0000 </r>
       <r>    2.2157    0.0000 </r>
       <r>    4.4879    0.0000 </r>
       <r>    5.5631    0.0000 </r>
       <r>    5.8536    0.0000 </r>
      </set>
      <set comment="kpoint 21">
       <r>  -19.1444    1.0000 </r>
       <r>  -12.1574    1.0000 </r>
       <r>  -10.1963    1.0000 </r>
       <r>   -5.5712    1.0000 </r>
       <r>    1.1942    0.0000 </r>
       <r>    5.9815    0.0000 </r>
       <r>    6.9913    0.0000 </r>
       <r>    7.4598    0.0000 </r>
      </set>
      <set comment="kpoint 22">
       <r>  -18.7226    1.0000 </r>
       <r>  -12.7284    1.0000 </r>
       <r>  -10.5243    1.0000 </r>
       <r>   -4.9081    1.0000 </r>
       <r>    0.4466    0.0000 </r>
       <r>    7.5010    0.0000 </r>
       <r>    8.2138    0.0000 </r>
       <r>    8.8415    0.0000 </r>
      </set>
      <set comment="kpoint 23">
       <r>  -18.6828    1.0000 </r>
       <r>  -12.4025    1.0000 </r>
       <r>  -11.0426    1.0000 </r>
       <r>   -4.8504    1.0000 </r>
       <r>    0.5251    0.0000 </r>
       <r>    7.5545    0.0000 </r>
       <r>    7.9396    0.0000 </r>
       <r>    9.1980    0.0000 </r>
      </set>
      <set comment="kpoint 24">
       <r>  -18.4962    1.0000 </r>
       <r>  -12.4640    1.0000 </r>
       <r>  -11.3885    1.0000 </r>
       <r>   -4.5386    1.0000 </r>
       <r>    0.2391    0.0000 </r>
       <r>    7.9756    0.0000 </r>
       <r>    8.6406    0.0000 </r>
       <r>    9.7199    0.0000 </r>
      </set>
     </set>
    </set>
   </array>
  </eigenvalues>
  <separator name="orbital magnetization" >
   <v name="MAGDIPOLOUT">      0.00000000      0.00000000      0.00000000</v>
  </separator>
  <dos>
   <i name="efermi">     -4.49819535 </i>
   <total>
    <array>
     <dimension dim="1">gridpoints</dimension>
     <dimension dim="2">spin</dimension>
     <field>energy</field>
     <field>total</field>
     <field>integrated</field>
     <set>
      <set comment="spin 1">
       <r>   -23.6908     0.0000     0.0000 </r>
       <r>   -23.5741     0.0000     0.0000 </r>
       <r>   -23.4575     0.0000     0.0000 </r>
       <r>   -23.3408     0.0000     0.0000 </r>
       <r>   -23.2241     0.0000     0.0000 </r>
       <r>   -23.1074     0.0000     0.0000 </r>
       <r>   -22.9908     0.0000     0.0000 </r>
       <r>   -22.8741     0.0000     0.0000 </r>
       <r>   -22.7574     0.0000     0.0000 </r>
       <r>   -22.6407     0.0000     0.0000 </r>
       <r>   -22.5241     0.0000     0.0000 </r>
       <r>   -22.4074     0.0000     0.0000 </r>
       <r>   -22.2907     0.0000     0.0000 </r>
       <r>   -22.1741     0.0000     0.0000 </r>
       <r>   -22.0574     0.2708     0.0057 </r>
       <r>   -21.9407     0.3495     0.0510 </r>
       <r>   -21.8240     0.4137     0.0955 </r>
       <r>   -21.7074     0.3645     0.1416 </r>
       <r>   -21.5907     0.3889     0.1855 </r>
       <r>   -21.4740     0.4134     0.2324 </r>
       <r>   -21.3574     0.3956     0.2795 </r>
       <r>   -21.2407     0.3961     0.3257 </r>
       <r>   -21.1240     0.4109     0.3728 </r>
       <r>   -21.0073     0.4256     0.4216 </r>
       <r>   -20.8907     0.4191     0.4712 </r>
       <r>   -20.7740     0.4266     0.5205 </r>
       <r>   -20.6573     0.4355     0.5708 </r>
       <r>   -20.5406     0.4473     0.6222 </r>
       <r>   -20.4240     0.4602     0.6752 </r>
       <r>   -20.3073     0.4697     0.7294 </r>
       <r>   -20.1906     0.4825     0.7849 </r>
       <r>   -20.0740     0.4991     0.8422 </r>
       <r>   -19.9573     0.5157     0.9014 </r>
       <r>   -19.8406     0.5348     0.9626 </r>
       <r>   -19.7239     0.5658     1.0264 </r>
       <r>   -19.6073     0.6119     1.0952 </r>
       <r>   -19.4906     0.6627     1.1693 </r>
       <r>   -19.3739     0.7241     1.2502 </r>
       <r>   -19.2572     0.8104     1.3388 </r>
       <r>   -19.1406     0.9753     1.4407 </r>
       <r>   -19.0239     1.1637     1.6134 </r>
       <r>   -18.9072     0.8238     1.7294 </r>
       <r>   -18.7906     0.7031     1.8119 </r>
       <r>   -18.6739     0.7429     1.8946 </r>
       <r>   -18.5572     0.4705     1.9654 </r>
       <r>   -18.4405     0.0000     2.0000 </r>
       <r>   -18.3239     0.0000     2.0000 </r>
       <r>   -18.2072     0.0000     2.0000 </r>
       <r>   -18.0905     0.0000     2.0000 </r>
       <r>   -17.9739     0.0000     2.0000 </r>
       <r>   -17.8572     0.0000     2.0000 </r>
       <r>   -17.7405     0.0000     2.0000 </r>
       <r>   -17.6238     0.0000     2.0000 </r>
       <r>   -17.5072     0.0000     2.0000 </r>
       <r>   -17.3905     0.0000     2.0000 </r>
       <r>   -17.2738     0.0000     2.0000 </r>
       <r>   -17.1571     0.0000     2.0000 </r>
       <r>   -17.0405     0.0000     2.0000 </r>
       <r>   -16.9238     0.0000     2.0000 </r>
       <r>   -16.8071     0.0000     2.0000 </r>
       <r>   -16.6905     0.0000     2.0000 </r>
       <r>   -16.5738     0.0000     2.0000 </r>
       <r>   -16.4571     0.0000     2.0000 </r>
       <r>   -16.3404     0.0000     2.0000 </r>
       <r>   -16.2238     0.0000     2.0000 </r>
       <r>   -16.1071     0.0000     2.0000 </r>
       <r>   -15.9904     0.0000     2.0000 </r>
       <r>   -15.8738     0.0000     2.0000 </r>
       <r>   -15.7571     0.0000     2.0000 </r>
       <r>   -15.6404     0.0000     2.0000 </r>
       <r>   -15.5237     0.0000     2.0000 </r>
       <r>   -15.4071     0.0000     2.0000 </r>
       <r>   -15.2904     0.0000     2.0000 </r>
       <r>   -15.1737     0.0000     2.0000 </r>
       <r>   -15.0570     0.0000     2.0000 </r>
       <r>   -14.9404     0.0000     2.0000 </r>
       <r>   -14.8237     0.0000     2.0000 </r>
       <r>   -14.7070     0.0000     2.0000 </r>
       <r>   -14.5904     0.0000     2.0000 </r>
       <r>   -14.4737     0.0000     2.0000 </r>
       <r>   -14.3570     0.0000     2.0000 </r>
       <r>   -14.2403     0.0000     2.0000 </r>
       <r>   -14.1237     0.0000     2.0000 </r>
       <r>   -14.0070     0.0000     2.0000 </r>
       <r>   -13.8903     0.0000     2.0000 </r>
       <r>   -13.7736     0.0000     2.0000 </r>
       <r>   -13.6570     0.0000     2.0000 </r>
       <r>   -13.5403     0.0000     2.0000 </r>
       <r>   -13.4236     0.0000     2.0000 </r>
       <r>   -13.3070     0.0868     2.0010 </r>
       <r>   -13.1903     0.5206     2.0364 </r>
       <r>   -13.0736     0.5458     2.1227 </r>
       <r>   -12.9569     0.6030     2.1898 </r>
       <r>   -12.8403     0.6804     2.2640 </r>
       <r>   -12.7236     0.8327     2.3496 </r>
       <r>   -12.6069     0.8525     2.4443 </r>
       <r>   -12.4903     0.9536     2.5496 </r>
       <r>   -12.3736     0.6148     2.6827 </r>
       <r>   -12.2569     0.6025     2.7537 </r>
       <r>   -12.1402     0.4147     2.8203 </r>
       <r>   -12.0236     0.4023     2.8679 </r>
       <r>   -11.9069     0.3900     2.9142 </r>
       <r>   -11.7902     0.3777     2.9589 </r>
       <r>   -11.6735     0.3624     3.0023 </r>
       <r>   -11.5569     0.3362     3.0430 </r>
       <r>   -11.4402     0.3099     3.0807 </r>
       <r>   -11.3235     0.4594     3.1370 </r>
       <r>   -11.2069     0.4512     3.1901 </r>
       <r>   -11.0902     0.4438     3.2423 </r>
       <r>   -10.9735     0.4483     3.2941 </r>
       <r>   -10.8568     0.4617     3.3471 </r>
       <r>   -10.7402     0.4752     3.4018 </r>
       <r>   -10.6235     0.4887     3.4580 </r>
       <r>   -10.5068     0.4978     3.5158 </r>
       <r>   -10.3901     0.4801     3.5727 </r>
       <r>   -10.2735     0.4855     3.6290 </r>
       <r>   -10.1568     0.5099     3.6867 </r>
       <r>   -10.0401     0.5179     3.7467 </r>
       <r>    -9.9235     0.5259     3.8076 </r>
       <r>    -9.8068     0.5339     3.8694 </r>
       <r>    -9.6901     0.5419     3.9321 </r>
       <r>    -9.5734     0.9769     4.0193 </r>
       <r>    -9.4568     0.9030     4.1228 </r>
       <r>    -9.3401     0.9883     4.2331 </r>
       <r>    -9.2234     1.0271     4.3518 </r>
       <r>    -9.1068     1.0647     4.4728 </r>
       <r>    -8.9901     1.1377     4.6012 </r>
       <r>    -8.8734     1.2107     4.7382 </r>
       <r>    -8.7567     0.8143     4.8872 </r>
       <r>    -8.6401     0.9696     4.9914 </r>
       <r>    -8.5234     0.8967     5.1051 </r>
       <r>    -8.4067     0.9159     5.2066 </r>
       <r>    -8.2900     1.0452     5.3210 </r>
       <r>    -8.1734     1.1057     5.4482 </r>
       <r>    -8.0567     0.9121     5.6551 </r>
       <r>    -7.9400     0.5217     5.7285 </r>
       <r>    -7.8234     0.3312     5.7783 </r>
       <r>    -7.7067     0.4790     5.8234 </r>
       <r>    -7.5900     1.0100     5.9282 </r>
       <r>    -7.4733     0.9836     6.0444 </r>
       <r>    -7.3567     0.9572     6.1577 </r>
       <r>    -7.2400     0.8203     6.2595 </r>
       <r>    -7.1233     0.7327     6.3501 </r>
       <r>    -7.0067     0.7561     6.4356 </r>
       <r>    -6.8900     0.7418     6.5230 </r>
       <r>    -6.7733     0.7258     6.6086 </r>
       <r>    -6.6566     0.7107     6.6924 </r>
       <r>    -6.5400     0.6964     6.7745 </r>
       <r>    -6.4233     0.7199     6.8561 </r>
       <r>    -6.3066     0.7308     6.9417 </r>
       <r>    -6.1899     0.7670     7.0280 </r>
       <r>    -6.0733     0.7205     7.1146 </r>
       <r>    -5.9566     0.7743     7.2016 </r>
       <r>    -5.8399     0.5634     7.2797 </r>
       <r>    -5.7233     0.5397     7.3409 </r>
       <r>    -5.6066     0.5908     7.4069 </r>
       <r>    -5.4899     0.7302     7.4827 </r>
       <r>    -5.3732     0.9645     7.6126 </r>
       <r>    -5.2566     0.6140     7.6932 </r>
       <r>    -5.1399     0.4705     7.7564 </r>
       <r>    -5.0232     0.4493     7.8073 </r>
       <r>    -4.9065     0.3458     7.8628 </r>
       <r>    -4.7899     0.4179     7.9126 </r>
       <r>    -4.6732     0.3151     7.9554 </r>
       <r>    -4.5565     0.2122     7.9861 </r>
       <r>    -4.4399     0.0000     8.0000 </r>
       <r>    -4.3232     0.0000     8.0000 </r>
       <r>    -4.2065     0.0000     8.0000 </r>
       <r>    -4.0898     0.0000     8.0000 </r>
       <r>    -3.9732     0.0000     8.0000 </r>
       <r>    -3.8565     0.0000     8.0000 </r>
       <r>    -3.7398     0.0000     8.0000 </r>
       <r>    -3.6232     0.0000     8.0000 </r>
       <r>    -3.5065     0.0000     8.0000 </r>
       <r>    -3.3898     0.0000     8.0000 </r>
       <r>    -3.2731     0.0000     8.0000 </r>
       <r>    -3.1565     0.0000     8.0000 </r>
       <r>    -3.0398     0.0000     8.0000 </r>
       <r>    -2.9231     0.0000     8.0000 </r>
       <r>    -2.8064     0.0000     8.0000 </r>
       <r>    -2.6898     0.0000     8.0000 </r>
       <r>    -2.5731     0.0000     8.0000 </r>
       <r>    -2.4564     0.0000     8.0000 </r>
       <r>    -2.3398     0.0000     8.0000 </r>
[...]
       </set>
       <set comment="band 5">
        <r>  0.0000  0.0000  0.3947  0.0000  0.0000  0.0000  0.0000  0.0000  0.0000 </r>
        <r>  0.0000  0.0000  0.0761  0.0000  0.0000  0.0000  0.0000  0.0000  0.0000 </r>
       </set>
       <set comment="band 6">
        <r>  0.1669  0.0162  0.0000  0.0453  0.0000  0.0000  0.0000  0.0000  0.0000 </r>
        <r>  0.1204  0.0238  0.0000  0.0159  0.0000  0.0000  0.0000  0.0000  0.0000 </r>
       </set>
       <set comment="band 7">
        <r>  0.0423  0.0092  0.0000  0.0129  0.0000  0.0000  0.0000  0.0000  0.0000 </r>
        <r>  0.0100  0.0022  0.0000  0.0278  0.0000  0.0000  0.0000  0.0000  0.0000 </r>
       </set>
       <set comment="band 8">
        <r>  0.0016  0.0005  0.0000  0.0005  0.0000  0.0000  0.0000  0.0000  0.0000 </r>
        <r>  0.0005  0.0011  0.0000  0.0047  0.0000  0.0000  0.0000  0.0000  0.0000 </r>
       </set>
      </set>
      <set comment="kpoint 15">
       <set comment="band 1">
        <r>  0.2025  0.0442  0.0000  0.0155  0.0000  0.0000  0.0000  0.0000  0.0000 </r>
        <r>  0.5246  0.0087  0.0000  0.0029  0.0000  0.0000  0.0000  0.0000  0.0000 </r>
       </set>
       <set comment="band 2">
        <r>  0.1097  0.0935  0.0000  0.1139  0.0000  0.0000  0.0000  0.0000  0.0000 </r>
        <r>  0.0666  0.3512  0.0000  0.1171  0.0000  0.0000  0.0000  0.0000  0.0000 </r>
       </set>
       <set comment="band 3">
        <r>  0.0000  0.0000  0.1727  0.0000  0.0000  0.0000  0.0000  0.0000  0.0000 </r>
        <r>  0.0000  0.0000  0.3563  0.0000  0.0000  0.0000  0.0000  0.0000  0.0000 </r>
       </set>
       <set comment="band 4">
        <r>  0.0346  0.1498  0.0000  0.1633  0.0000  0.0000  0.0000  0.0000  0.0000 </r>
        <r>  0.0001  0.1339  0.0000  0.4017  0.0000  0.0000  0.0000  0.0000  0.0000 </r>
       </set>
       <set comment="band 5">
        <r>  0.0000  0.0004  0.0000  0.0011  0.0000  0.0000  0.0000  0.0000  0.0000 </r>
        <r>  0.0269  0.0113  0.0000  0.0045  0.0000  0.0000  0.0000  0.0000  0.0000 </r>
       </set>
       <set comment="band 6">
        <r>  0.0000  0.0000  0.0066  0.0000  0.0000  0.0000  0.0000  0.0000  0.0000 </r>
        <r>  0.0000  0.0000  0.0959  0.0000  0.0000  0.0000  0.0000  0.0000  0.0000 </r>
       </set>
       <set comment="band 7">
        <r>  0.0000  0.0001  0.0000  0.0002  0.0000  0.0000  0.0000  0.0000  0.0000 </r>
        <r>  0.0031  0.0012  0.0000  0.0005  0.0000  0.0000  0.0000  0.0000  0.0000 </r>
       </set>
       <set comment="band 8">
        <r>  0.0000  0.0000  0.0340  0.0000  0.0000  0.0000  0.0000  0.0000  0.0000 </r>
        <r>  0.0000  0.0000  0.0948  0.0000  0.0000  0.0000  0.0000  0.0000  0.0000 </r>
       </set>
      </set>
      <set comment="kpoint 16">
       <set comment="band 1">
        <r>  0.1627  0.0576  0.0000  0.0353  0.0000  0.0000  0.0000  0.0000  0.0000 </r>
        <r>  0.5409  0.0097  0.0000  0.0053  0.0000  0.0000  0.0000  0.0000  0.0000 </r>
       </set>
       <set comment="band 2">
        <r>  0.1481  0.0237  0.0000  0.1620  0.0000  0.0000  0.0000  0.0000  0.0000 </r>
        <r>  0.0707  0.2324  0.0000  0.1982  0.0000  0.0000  0.0000  0.0000  0.0000 </r>
       </set>
       <set comment="band 3">
        <r>  0.0611  0.2217  0.0000  0.0845  0.0000  0.0000  0.0000  0.0000  0.0000 </r>
        <r>  0.0015  0.2345  0.0000  0.2741  0.0000  0.0000  0.0000  0.0000  0.0000 </r>
       </set>
       <set comment="band 4">
        <r>  0.0000  0.0000  0.1559  0.0000  0.0000  0.0000  0.0000  0.0000  0.0000 </r>
        <r>  0.0000  0.0000  0.3848  0.0000  0.0000  0.0000  0.0000  0.0000  0.0000 </r>
       </set>
       <set comment="band 5">
        <r>  0.0000  0.0000  0.1822  0.0000  0.0000  0.0000  0.0000  0.0000  0.0000 </r>
        <r>  0.0000  0.0000  0.2624  0.0000  0.0000  0.0000  0.0000  0.0000  0.0000 </r>
       </set>
       <set comment="band 6">
        <r>  0.0003  0.0001  0.0000  0.0024  0.0000  0.0000  0.0000  0.0000  0.0000 </r>
        <r>  0.0256  0.0144  0.0000  0.0070  0.0000  0.0000  0.0000  0.0000  0.0000 </r>
       </set>
       <set comment="band 7">
        <r>  0.0000  0.0000  0.0928  0.0000  0.0000  0.0000  0.0000  0.0000  0.0000 </r>
        <r>  0.0000  0.0000  0.0210  0.0000  0.0000  0.0000  0.0000  0.0000  0.0000 </r>
       </set>
       <set comment="band 8">
        <r>  0.0002  0.0000  0.0000  0.0004  0.0000  0.0000  0.0000  0.0000  0.0000 </r>
        <r>  0.0028  0.0016  0.0000  0.0007  0.0000  0.0000  0.0000  0.0000  0.0000 </r>
       </set>
      </set>
      <set comment="kpoint 17">
       <set comment="band 1">
        <r>  0.1110  0.0690  0.0000  0.0643  0.0000  0.0000  0.0000  0.0000  0.0000 </r>
        <r>  0.5691  0.0087  0.0000  0.0057  0.0000  0.0000  0.0000  0.0000  0.0000 </r>
       </set>
       <set comment="band 2">
        <r>  0.2009  0.0007  0.0000  0.1547  0.0000  0.0000  0.0000  0.0000  0.0000 </r>
        <r>  0.0557  0.1585  0.0000  0.2440  0.0000  0.0000  0.0000  0.0000  0.0000 </r>
       </set>
       <set comment="band 3">
        <r>  0.0793  0.2417  0.0000  0.0571  0.0000  0.0000  0.0000  0.0000  0.0000 </r>
        <r>  0.0045  0.2985  0.0000  0.1946  0.0000  0.0000  0.0000  0.0000  0.0000 </r>
       </set>
       <set comment="band 4">
        <r>  0.0000  0.0000  0.1282  0.0000  0.0000  0.0000  0.0000  0.0000  0.0000 </r>
        <r>  0.0000  0.0000  0.4311  0.0000  0.0000  0.0000  0.0000  0.0000  0.0000 </r>
       </set>
       <set comment="band 5">
        <r>  0.0000  0.0000  0.3300  0.0000  0.0000  0.0000  0.0000  0.0000  0.0000 </r>
        <r>  0.0000  0.0000  0.2034  0.0000  0.0000  0.0000  0.0000  0.0000  0.0000 </r>
       </set>
       <set comment="band 6">
        <r>  0.0038  0.0001  0.0000  0.0058  0.0000  0.0000  0.0000  0.0000  0.0000 </r>
        <r>  0.0293  0.0219  0.0000  0.0095  0.0000  0.0000  0.0000  0.0000  0.0000 </r>
       </set>
       <set comment="band 7">
        <r>  0.0000  0.0000  0.0393  0.0000  0.0000  0.0000  0.0000  0.0000  0.0000 </r>
        <r>  0.0000  0.0000  0.0027  0.0000  0.0000  0.0000  0.0000  0.0000  0.0000 </r>
       </set>
       <set comment="band 8">
        <r>  0.0016  0.0002  0.0000  0.0014  0.0000  0.0000  0.0000  0.0000  0.0000 </r>
        <r>  0.0038  0.0028  0.0000  0.0009  0.0000  0.0000  0.0000  0.0000  0.0000 </r>
       </set>
      </set>
      <set comment="kpoint 18">
       <set comment="band 1">
        <r>  0.0543  0.0719  0.0000  0.1025  0.0000  0.0000  0.0000  0.0000  0.0000 </r>
        <r>  0.6088  0.0051  0.0000  0.0027  0.0000  0.0000  0.0000  0.0000  0.0000 </r>
       </set>
       <set comment="band 2">
        <r>  0.2595  0.0083  0.0000  0.1120  0.0000  0.0000  0.0000  0.0000  0.0000 </r>
        <r>  0.0234  0.1205  0.0000  0.2708  0.0000  0.0000  0.0000  0.0000  0.0000 </r>
       </set>
       <set comment="band 3">
        <r>  0.0891  0.2331  0.0000  0.0613  0.0000  0.0000  0.0000  0.0000  0.0000 </r>
        <r>  0.0068  0.3350  0.0000  0.1502  0.0000  0.0000  0.0000  0.0000  0.0000 </r>
       </set>
       <set comment="band 4">
        <r>  0.0000  0.0000  0.0870  0.0000  0.0000  0.0000  0.0000  0.0000  0.0000 </r>
        <r>  0.0000  0.0000  0.4982  0.0000  0.0000  0.0000  0.0000  0.0000  0.0000 </r>
       </set>
       <set comment="band 5">
        <r>  0.0000  0.0000  0.3998  0.0000  0.0000  0.0000  0.0000  0.0000  0.0000 </r>
        <r>  0.0000  0.0000  0.1080  0.0000  0.0000  0.0000  0.0000  0.0000  0.0000 </r>
       </set>
       <set comment="band 6">
        <r>  0.0403  0.0040  0.0000  0.0191  0.0000  0.0000  0.0000  0.0000  0.0000 </r>
        <r>  0.0544  0.0467  0.0000  0.0150  0.0000  0.0000  0.0000  0.0000  0.0000 </r>
       </set>
       <set comment="band 7">
        <r>  0.0000  0.0000  0.0299  0.0000  0.0000  0.0000  0.0000  0.0000  0.0000 </r>
        <r>  0.0000  0.0000  0.0154  0.0000  0.0000  0.0000  0.0000  0.0000  0.0000 </r>
       </set>
       <set comment="band 8">
        <r>  0.0958  0.0230  0.0000  0.0364  0.0000  0.0000  0.0000  0.0000  0.0000 </r>
        <r>  0.0419  0.0175  0.0000  0.0305  0.0000  0.0000  0.0000  0.0000  0.0000 </r>
       </set>
      </set>
      <set comment="kpoint 19">
       <set comment="band 1">
        <r>  0.0248  0.0571  0.0000  0.1376  0.0000  0.0000  0.0000  0.0000  0.0000 </r>
        <r>  0.6329  0.0011  0.0000  0.0009  0.0000  0.0000  0.0000  0.0000  0.0000 </r>
       </set>
       <set comment="band 2">
        <r>  0.2899  0.0408  0.0000  0.0610  0.0000  0.0000  0.0000  0.0000  0.0000 </r>
        <r>  0.0019  0.0987  0.0000  0.2924  0.0000  0.0000  0.0000  0.0000  0.0000 </r>
       </set>
       <set comment="band 3">
        <r>  0.0922  0.2126  0.0000  0.0805  0.0000  0.0000  0.0000  0.0000  0.0000 </r>
        <r>  0.0076  0.3617  0.0000  0.1212  0.0000  0.0000  0.0000  0.0000  0.0000 </r>
       </set>
       <set comment="band 4">
        <r>  0.0000  0.0000  0.0587  0.0000  0.0000  0.0000  0.0000  0.0000  0.0000 </r>
        <r>  0.0000  0.0000  0.5433  0.0000  0.0000  0.0000  0.0000  0.0000  0.0000 </r>
       </set>
       <set comment="band 5">
        <r>  0.0000  0.0000  0.4345  0.0000  0.0000  0.0000  0.0000  0.0000  0.0000 </r>
        <r>  0.0000  0.0000  0.0533  0.0000  0.0000  0.0000  0.0000  0.0000  0.0000 </r>
       </set>
       <set comment="band 6">
        <r>  0.1359  0.0272  0.0000  0.0331  0.0000  0.0000  0.0000  0.0000  0.0000 </r>
        <r>  0.0949  0.0611  0.0000  0.0387  0.0000  0.0000  0.0000  0.0000  0.0000 </r>
       </set>
       <set comment="band 7">
        <r>  0.0041  0.0045  0.0000  0.0018  0.0000  0.0000  0.0000  0.0000  0.0000 </r>
        <r>  0.0086  0.0173  0.0000  0.0491  0.0000  0.0000  0.0000  0.0000  0.0000 </r>
       </set>
       <set comment="band 8">
        <r>  0.0414  0.0217  0.0000  0.0342  0.0000  0.0000  0.0000  0.0000  0.0000 </r>
        <r>  0.0051  0.0048  0.0000  0.0019  0.0000  0.0000  0.0000  0.0000  0.0000 </r>
       </set>
      </set>
      <set comment="kpoint 20">
       <set comment="band 1">
        <r>  0.1177  0.0913  0.0000  0.0367  0.0000  0.0000  0.0000  0.0000  0.0000 </r>
        <r>  0.5649  0.0114  0.0000  0.0040  0.0000  0.0000  0.0000  0.0000  0.0000 </r>
       </set>
       <set comment="band 2">
        <r>  0.1621  0.0489  0.0000  0.1324  0.0000  0.0000  0.0000  0.0000  0.0000 </r>
        <r>  0.0667  0.3073  0.0000  0.1047  0.0000  0.0000  0.0000  0.0000  0.0000 </r>
       </set>
       <set comment="band 3">
        <r>  0.1204  0.1490  0.0000  0.1205  0.0000  0.0000  0.0000  0.0000  0.0000 </r>
        <r>  0.0000  0.1196  0.0000  0.3548  0.0000  0.0000  0.0000  0.0000  0.0000 </r>
       </set>
       <set comment="band 4">
        <r>  0.0000  0.0000  0.1313  0.0000  0.0000  0.0000  0.0000  0.0000  0.0000 </r>
        <r>  0.0000  0.0000  0.4253  0.0000  0.0000  0.0000  0.0000  0.0000  0.0000 </r>
       </set>
       <set comment="band 5">
        <r>  0.0000  0.0000  0.3260  0.0000  0.0000  0.0000  0.0000  0.0000  0.0000 </r>
        <r>  0.0000  0.0000  0.2223  0.0000  0.0000  0.0000  0.0000  0.0000  0.0000 </r>
       </set>
       <set comment="band 6">
        <r>  0.0005  0.0007  0.0000  0.0018  0.0000  0.0000  0.0000  0.0000  0.0000 </r>
        <r>  0.0227  0.0212  0.0000  0.0091  0.0000  0.0000  0.0000  0.0000  0.0000 </r>
       </set>
       <set comment="band 7">
        <r>  0.0000  0.0000  0.0445  0.0000  0.0000  0.0000  0.0000  0.0000  0.0000 </r>
        <r>  0.0000  0.0000  0.0007  0.0000  0.0000  0.0000  0.0000  0.0000  0.0000 </r>
       </set>
       <set comment="band 8">
        <r>  0.0003  0.0001  0.0000  0.0002  0.0000  0.0000  0.0000  0.0000  0.0000 </r>
        <r>  0.0023  0.0022  0.0000  0.0010  0.0000  0.0000  0.0000  0.0000  0.0000 </r>
       </set>
      </set>
      <set comment="kpoint 21">
       <set comment="band 1">
        <r>  0.0650  0.0974  0.0000  0.0684  0.0000  0.0000  0.0000  0.0000  0.0000 </r>
        <r>  0.6012  0.0078  0.0000  0.0032  0.0000  0.0000  0.0000  0.0000  0.0000 </r>
       </set>
       <set comment="band 2">
        <r>  0.1894  0.0188  0.0000  0.1549  0.0000  0.0000  0.0000  0.0000  0.0000 </r>
        <r>  0.0409  0.2072  0.0000  0.1934  0.0000  0.0000  0.0000  0.0000  0.0000 </r>
       </set>
       <set comment="band 3">
        <r>  0.1667  0.1776  0.0000  0.0564  0.0000  0.0000  0.0000  0.0000  0.0000 </r>
        <r>  0.0027  0.2184  0.0000  0.2366  0.0000  0.0000  0.0000  0.0000  0.0000 </r>
       </set>
       <set comment="band 4">
        <r>  0.0000  0.0000  0.0916  0.0000  0.0000  0.0000  0.0000  0.0000  0.0000 </r>
        <r>  0.0000  0.0000  0.4878  0.0000  0.0000  0.0000  0.0000  0.0000  0.0000 </r>
       </set>
       <set comment="band 5">
        <r>  0.0000  0.0000  0.4078  0.0000  0.0000  0.0000  0.0000  0.0000  0.0000 </r>
        <r>  0.0000  0.0000  0.1361  0.0000  0.0000  0.0000  0.0000  0.0000  0.0000 </r>
       </set>
       <set comment="band 6">
        <r>  0.0040  0.0002  0.0000  0.0037  0.0000  0.0000  0.0000  0.0000  0.0000 </r>
        <r>  0.0225  0.0349  0.0000  0.0137  0.0000  0.0000  0.0000  0.0000  0.0000 </r>
       </set>
       <set comment="band 7">
        <r>  0.0000  0.0000  0.0359  0.0000  0.0000  0.0000  0.0000  0.0000  0.0000 </r>
        <r>  0.0000  0.0000  0.0094  0.0000  0.0000  0.0000  0.0000  0.0000  0.0000 </r>
       </set>
       <set comment="band 8">
        <r>  0.0018  0.0001  0.0000  0.0008  0.0000  0.0000  0.0000  0.0000  0.0000 </r>
        <r>  0.0027  0.0048  0.0000  0.0017  0.0000  0.0000  0.0000  0.0000  0.0000 </r>
       </set>
      </set>
      <set comment="kpoint 22">
       <set comment="band 1">
        <r>  0.0216  0.0847  0.0000  0.1100  0.0000  0.0000  0.0000  0.0000  0.0000 </r>
        <r>  0.6373  0.0029  0.0000  0.0005  0.0000  0.0000  0.0000  0.0000  0.0000 </r>
       </set>
       <set comment="band 2">
        <r>  0.2230  0.0459  0.0000  0.1142  0.0000  0.0000  0.0000  0.0000  0.0000 </r>
        <r>  0.0076  0.1326  0.0000  0.2663  0.0000  0.0000  0.0000  0.0000  0.0000 </r>
       </set>
       <set comment="band 3">
        <r>  0.1873  0.1629  0.0000  0.0526  0.0000  0.0000  0.0000  0.0000  0.0000 </r>
        <r>  0.0067  0.2987  0.0000  0.1482  0.0000  0.0000  0.0000  0.0000  0.0000 </r>
       </set>
       <set comment="band 4">
        <r>  0.0000  0.0000  0.0446  0.0000  0.0000  0.0000  0.0000  0.0000  0.0000 </r>
        <r>  0.0000  0.0000  0.5585  0.0000  0.0000  0.0000  0.0000  0.0000  0.0000 </r>
       </set>
       <set comment="band 5">
        <r>  0.0000  0.0000  0.4708  0.0000  0.0000  0.0000  0.0000  0.0000  0.0000 </r>
        <r>  0.0000  0.0000  0.0518  0.0000  0.0000  0.0000  0.0000  0.0000  0.0000 </r>
       </set>
       <set comment="band 6">
        <r>  0.0399  0.0031  0.0000  0.0107  0.0000  0.0000  0.0000  0.0000  0.0000 </r>
        <r>  0.0337  0.0845  0.0000  0.0322  0.0000  0.0000  0.0000  0.0000  0.0000 </r>
       </set>
       <set comment="band 7">
        <r>  0.0000  0.0000  0.0314  0.0000  0.0000  0.0000  0.0000  0.0000  0.0000 </r>
        <r>  0.0000  0.0000  0.0267  0.0000  0.0000  0.0000  0.0000  0.0000  0.0000 </r>
       </set>
       <set comment="band 8">
        <r>  0.0724  0.0264  0.0000  0.0146  0.0000  0.0000  0.0000  0.0000  0.0000 </r>
        <r>  0.0267  0.0251  0.0000  0.0834  0.0000  0.0000  0.0000  0.0000  0.0000 </r>
       </set>
      </set>
      <set comment="kpoint 23">
       <set comment="band 1">
        <r>  0.0224  0.1201  0.0000  0.0732  0.0000  0.0000  0.0000  0.0000  0.0000 </r>
        <r>  0.6375  0.0033  0.0000  0.0012  0.0000  0.0000  0.0000  0.0000  0.0000 </r>
       </set>
       <set comment="band 2">
        <r>  0.1446  0.0757  0.0000  0.1475  0.0000  0.0000  0.0000  0.0000  0.0000 </r>
        <r>  0.0172  0.2922  0.0000  0.1142  0.0000  0.0000  0.0000  0.0000  0.0000 </r>
       </set>
       <set comment="band 3">
        <r>  0.2743  0.0847  0.0000  0.0619  0.0000  0.0000  0.0000  0.0000  0.0000 </r>
        <r>  0.0002  0.1175  0.0000  0.3111  0.0000  0.0000  0.0000  0.0000  0.0000 </r>
       </set>
       <set comment="band 4">
        <r>  0.0000  0.0000  0.0403  0.0000  0.0000  0.0000  0.0000  0.0000  0.0000 </r>
        <r>  0.0000  0.0000  0.5620  0.0000  0.0000  0.0000  0.0000  0.0000  0.0000 </r>
       </set>
       <set comment="band 5">
        <r>  0.0000  0.0000  0.4867  0.0000  0.0000  0.0000  0.0000  0.0000  0.0000 </r>
        <r>  0.0000  0.0000  0.0560  0.0000  0.0000  0.0000  0.0000  0.0000  0.0000 </r>
       </set>
       <set comment="band 6">
        <r>  0.0122  0.0008  0.0000  0.0018  0.0000  0.0000  0.0000  0.0000  0.0000 </r>
        <r>  0.0156  0.0597  0.0000  0.0325  0.0000  0.0000  0.0000  0.0000  0.0000 </r>
       </set>
       <set comment="band 7">
        <r>  0.0000  0.0000  0.0272  0.0000  0.0000  0.0000  0.0000  0.0000  0.0000 </r>
        <r>  0.0000  0.0000  0.0129  0.0000  0.0000  0.0000  0.0000  0.0000  0.0000 </r>
       </set>
       <set comment="band 8">
        <r>  0.0114  0.0001  0.0000  0.0002  0.0000  0.0000  0.0000  0.0000  0.0000 </r>
        <r>  0.0010  0.0136  0.0000  0.0167  0.0000  0.0000  0.0000  0.0000  0.0000 </r>
       </set>
      </set>
      <set comment="kpoint 24">
       <set comment="band 1">
        <r>  0.0035  0.0889  0.0000  0.1156  0.0000  0.0000  0.0000  0.0000  0.0000 </r>
        <r>  0.6557  0.0004  0.0000  0.0002  0.0000  0.0000  0.0000  0.0000  0.0000 </r>
       </set>
       <set comment="band 2">
        <r>  0.1009  0.1375  0.0000  0.1301  0.0000  0.0000  0.0000  0.0000  0.0000 </r>
        <r>  0.0008  0.1290  0.0000  0.2835  0.0000  0.0000  0.0000  0.0000  0.0000 </r>
       </set>
       <set comment="band 3">
        <r>  0.3439  0.0553  0.0000  0.0320  0.0000  0.0000  0.0000  0.0000  0.0000 </r>
        <r>  0.0018  0.2904  0.0000  0.1270  0.0000  0.0000  0.0000  0.0000  0.0000 </r>
       </set>
       <set comment="band 4">
        <r>  0.0000  0.0000  0.0084  0.0000  0.0000  0.0000  0.0000  0.0000  0.0000 </r>
        <r>  0.0000  0.0000  0.6062  0.0000  0.0000  0.0000  0.0000  0.0000  0.0000 </r>
       </set>
       <set comment="band 5">
        <r>  0.0000  0.0000  0.5289  0.0000  0.0000  0.0000  0.0000  0.0000  0.0000 </r>
        <r>  0.0000  0.0000  0.0098  0.0000  0.0000  0.0000  0.0000  0.0000  0.0000 </r>
       </set>
       <set comment="band 6">
        <r>  0.0000  0.0000  0.0057  0.0000  0.0000  0.0000  0.0000  0.0000  0.0000 </r>
        <r>  0.0000  0.0000  0.0046  0.0000  0.0000  0.0000  0.0000  0.0000  0.0000 </r>
       </set>
       <set comment="band 7">
        <r>  0.0570  0.0007  0.0000  0.0009  0.0000  0.0000  0.0000  0.0000  0.0000 </r>
        <r>  0.0064  0.1099  0.0000  0.1118  0.0000  0.0000  0.0000  0.0000  0.0000 </r>
       </set>
       <set comment="band 8">
        <r>  0.0019  0.0046  0.0000  0.0024  0.0000  0.0000  0.0000  0.0000  0.0000 </r>
        <r>  0.0103  0.0382  0.0000  0.0368  0.0000  0.0000  0.0000  0.0000  0.0000 </r>
       </set>
      </set>
     </set>
    </set>
   </array>
  </projected>
 </calculation>
 <structure name="finalpos" >
  <crystal>
   <varray name="basis" >
    <v>       2.50899500       0.00000000       0.00000000 </v>
    <v>      -1.25449800       2.17285400       0.00000000 </v>
    <v>       0.00000000       0.00000000      20.00000000 </v>
   </varray>
   <i name="volume">    109.03359643 </i>
   <varray name="rec_basis" >
    <v>       0.39856596       0.23011219       0.00000000 </v>
    <v>       0.00000000       0.46022420       0.00000000 </v>
    <v>       0.00000000       0.00000000       0.05000000 </v>
   </varray>
  </crystal>
  <varray name="positions" >
   <v>       0.00000000       0.00000000       0.50000000 </v>
   <v>       0.33333300       0.66666700       0.50000000 </v>
  </varray>
 </structure>
</modeling>
