    2    2    1    1
  0.5643294E+01  0.2517827E-09  0.2517827E-09  0.2517827E-09  0.5000000E-15
  1.000000000000000E-004
  CAR 
 r-GeO2 ENCUT convergence test           
      8    120      8
 
  0.0000000E+00  0.0000000E+00  0.0000000E+00  0.2962963E-03
    1      -12.155944   1.000000
    2        8.874647   1.000000
    3        8.874649   1.000000
    4        8.874650   1.000000
    5       14.971647   0.000000
    6       14.971649   0.000000
    7       14.971651   0.000000
    8       22.788027   0.000000
 
  0.6666667E-01 -0.3295382E-17  0.0000000E+00  0.2370370E-02
    1      -12.034837   1.000000
    2        8.108601   1.000000
    3        8.676700   1.000000
    4        8.676701   1.000000
    5       15.237118   0.000000
    6       15.237120   0.000000
    7       15.439993   0.000000
    8       22.898301   0.000000
 
  0.1333333E+00 -0.6590764E-17  0.0000000E+00  0.2370370E-02
    1      -11.672536   1.000000
    2        6.347564   1.000000
    3        8.193774   1.000000
    4        8.193775   1.000000
    5       15.890539   0.000000
    6       15.890541   0.000000
    7       16.335296   0.000000
    8       23.227486   0.000000
 
  0.2000000E+00 -0.2235735E-16  0.0000000E+00  0.2370370E-02
    1      -11.072699   1.000000
    2        4.216802   1.000000
    3        7.617044   1.000000
    4        7.617045   1.000000
    5       16.654300   0.000000
    6       16.654301   0.000000
    7       17.121852   0.000000
    8       23.749235   0.000000
 
  0.2666667E+00  0.1781357E-17  0.0000000E+00  0.2370370E-02
    1      -10.243258   1.000000
    2        2.003362   1.000000
    3        7.075928   1.000000
    4        7.075929   1.000000
    5       17.297349   0.000000
    6       17.297350   0.000000
    7       17.670529   0.000000
    8       24.381806   0.000000
 
  0.3333333E+00 -0.8131428E-17  0.0000000E+00  0.2370370E-02
    1       -9.201362   1.000000
    2       -0.147817   1.000000
    3        6.637077   1.000000
    4        6.637079   1.000000
    5       17.705017   0.000000
    6       17.705019   0.000000
    7       18.015220   0.000000
    8       24.993980   0.000000
 
  0.4000000E+00 -0.4471469E-16  0.0000000E+00  0.2370370E-02
    1       -7.995232   1.000000
    2       -2.121978   1.000000
    3        6.332744   1.000000
    4        6.332746   1.000000
    5       17.898114   0.000000
    6       17.898115   0.000000
    7       18.213557   0.000000
    8       25.446617   0.000000
 
  0.4666667E+00 -0.4454063E-16  0.0000000E+00  0.2370370E-02
    1       -6.849371   1.000000
    2       -3.659621   1.000000
    3        6.177765   1.000000
    4        6.177767   1.000000
    5       17.962082   0.000000
    6       17.962083   0.000000
    7       18.304192   0.000000
    8       25.676535   0.000000
 
  0.6666667E-01  0.6666667E-01  0.0000000E+00  0.1777778E-02
    1      -11.994474   1.000000
    2        8.306877   1.000000
    3        8.306878   1.000000
    4        8.481996   1.000000
    5       14.870362   0.000000
    6       15.686479   0.000000
    7       15.686480   0.000000
    8       22.899996   0.000000
 
  0.1333333E+00  0.6666667E-01  0.0000000E+00  0.7111111E-02
    1      -11.712623   1.000000
    2        6.934701   1.000000
    3        7.731325   1.000000
    4        8.281347   1.000000
    5       15.065281   0.000000
    6       16.456563   0.000000
    7       16.512929   0.000000
    8       23.050133   0.000000
 
  0.2000000E+00  0.6666667E-01  0.0000000E+00  0.7111111E-02
    1      -11.191910   1.000000
    2        4.947318   1.000000
    3        7.127795   1.000000
    4        7.835424   1.000000
    5       15.683233   0.000000
    6       17.288525   0.000000
    7       17.345066   0.000000
    8       23.338556   0.000000
 
  0.2666667E+00  0.6666667E-01  0.0000000E+00  0.7111111E-02
    1      -10.438718   1.000000
    2        2.780420   1.000000
    3        6.603496   1.000000
    4        7.266489   1.000000
    5       16.414598   0.000000
    6       17.958948   0.000000
    7       17.965446   0.000000
    8       23.758805   0.000000
 
  0.3333333E+00  0.6666667E-01  0.0000000E+00  0.7111111E-02
    1       -9.466224   1.000000
    2        0.620037   1.000000
    3        6.212778   1.000000
    4        6.707753   1.000000
    5       17.018255   0.000000
    6       18.353831   0.000000
    7       18.364625   0.000000
    8       24.315870   0.000000
 
  0.4000000E+00  0.6666667E-01  0.0000000E+00  0.7111111E-02
    1       -8.307325   1.000000
    2       -1.412742   1.000000
    3        5.980671   1.000000
    4        6.232427   1.000000
    5       17.417316   0.000000
    6       18.490109   0.000000
    7       18.585181   0.000000
    8       24.936627   0.000000
 
  0.4666667E+00  0.6666667E-01  0.0000000E+00  0.7111111E-02
    1       -7.087872   1.000000
    2       -3.145172   1.000000
    3        5.879963   1.000000
    4        5.915757   1.000000
    5       17.670564   0.000000
    6       18.430895   0.000000
    7       18.699632   0.000000
    8       25.430792   0.000000
 
 -0.4666667E+00  0.6666667E-01  0.0000000E+00  0.7111111E-02
    1       -6.545397   1.000000
    2       -3.817008   1.000000
    3        5.673167   1.000000
    4        6.016655   1.000000
    5       17.860253   0.000000
    6       18.274721   0.000000
    7       18.721989   0.000000
    8       25.606759   0.000000
 
 -0.4000000E+00  0.6666667E-01  0.0000000E+00  0.7111111E-02
    1       -7.481968   1.000000
    2       -2.620649   1.000000
    3        5.625842   1.000000
    4        6.274459   1.000000
    5       18.010973   0.000000
    6       18.051272   0.000000
    7       18.656455   0.000000
    8       25.406083   0.000000
 
 -0.3333333E+00  0.6666667E-01  0.0000000E+00  0.7111111E-02
    1       -8.710808   1.000000
    2       -0.753821   1.000000
    3        5.744962   1.000000
    4        6.672903   1.000000
    5       17.724135   0.000000
    6       18.071589   0.000000
    7       18.481386   0.000000
    8       24.905717   0.000000
 
 -0.2666667E+00  0.6666667E-01  0.0000000E+00  0.7111111E-02
    1       -9.813713   1.000000
    2        1.335490   1.000000
    3        6.030161   1.000000
    4        7.184144   1.000000
    5       17.228761   0.000000
    6       17.950726   0.000000
    7       18.135692   0.000000
    8       24.296411   0.000000
 
 -0.2000000E+00  0.6666667E-01  0.0000000E+00  0.7111111E-02
    1      -10.715171   1.000000
    2        3.512432   1.000000
    3        6.470884   1.000000
    4        7.759136   1.000000
    5       16.555890   0.000000
    6       17.508973   0.000000
    7       17.615593   0.000000
    8       23.752515   0.000000
 
 -0.1333333E+00  0.6666667E-01  0.0000000E+00  0.7111111E-02
    1      -11.391786   1.000000
    2        5.636370   1.000000
    3        7.043044   1.000000
    4        8.306876   1.000000
    5       15.829752   0.000000
    6       16.697574   0.000000
    7       16.975721   0.000000
    8       23.334242   0.000000
 
 -0.6666667E-01  0.6666667E-01  0.0000000E+00  0.3555556E-02
    1      -11.833326   1.000000
    2        7.376685   1.000000
    3        7.774810   1.000000
    4        8.670861   1.000000
    5       15.302920   0.000000
    6       15.849787   0.000000
    7       16.135479   0.000000
    8       23.045792   0.000000
 
  0.1333333E+00  0.1333333E+00  0.0000000E+00  0.1777778E-02
    1      -11.511611   1.000000
    2        7.103225   1.000000
    3        7.103225   1.000000
    4        7.400661   1.000000
    5       14.609965   0.000000
    6       17.323845   0.000000
    7       17.323846   0.000000
    8       22.817629   0.000000
 
  0.2000000E+00  0.1333333E+00  0.0000000E+00  0.7111111E-02
    1      -11.071403   1.000000
    2        5.555754   1.000000
    3        6.474463   1.000000
    4        7.136364   1.000000
    5       14.767222   0.000000
    6       18.234539   0.000000
    7       18.251420   0.000000
    8       22.571508   0.000000
 
  0.2666667E+00  0.1333333E+00  0.0000000E+00  0.7111111E-02
    1      -10.397150   1.000000
    2        3.564535   1.000000
    3        5.944397   1.000000
    4        6.667274   1.000000
    5       15.376759   0.000000
    6       18.951375   0.000000
    7       19.026470   0.000000
    8       22.449971   0.000000
 
  0.3333333E+00  0.1333333E+00  0.0000000E+00  0.7111111E-02
    1       -9.499420   1.000000
    2        1.480308   1.000000
    3        5.565338   1.000000
    4        6.060924   1.000000
    5       16.086473   0.000000
    6       19.423571   0.000000
    7       19.503921   0.000000
    8       22.674138   0.000000
 
  0.4000000E+00  0.1333333E+00  0.0000000E+00  0.7111111E-02
    1       -8.402170   1.000000
    2       -0.547474   1.000000
    3        5.362054   1.000000
    4        5.457679   1.000000
    5       16.641030   0.000000
    6       19.653309   0.000000
    7       19.703514   0.000000
    8       23.364422   0.000000
 
  0.4666667E+00  0.1333333E+00  0.0000000E+00  0.7111111E-02
    1       -7.182120   1.000000
    2       -2.373136   1.000000
    3        4.939320   1.000000
    4        5.342816   1.000000
    5       17.019462   0.000000
    6       19.547020   0.000000
    7       19.847732   0.000000
    8       24.347045   0.000000
 
 -0.4666667E+00  0.1333333E+00  0.0000000E+00  0.7111111E-02
    1       -6.258209   1.000000
    2       -3.541510   1.000000
    3        4.553158   1.000000
    4        5.504513   1.000000
    5       17.327246   0.000000
    6       19.282124   0.000000
    7       19.894938   0.000000
    8       25.155988   0.000000
 
 -0.4000000E+00  0.1333333E+00  0.0000000E+00  0.7111111E-02
    1       -6.797566   1.000000
    2       -2.872174   1.000000
    3        4.328174   1.000000
    4        5.834176   1.000000
    5       17.631854   0.000000
    6       18.911607   0.000000
    7       19.855981   0.000000
    8       25.253034   0.000000
 
 -0.3333333E+00  0.1333333E+00  0.0000000E+00  0.7111111E-02
    1       -8.005993   1.000000
    2       -1.165905   1.000000
    3        4.282827   1.000000
    4        6.307600   1.000000
    5       17.913386   0.000000
    6       18.425851   0.000000
    7       19.703316   0.000000
    8       24.658343   0.000000
 
 -0.2666667E+00  0.1333333E+00  0.0000000E+00  0.7111111E-02
    1       -9.156761   1.000000
    2        0.820416   1.000000
    3        4.429746   1.000000
    4        6.884425   1.000000
    5       17.788835   0.000000
    6       18.078435   0.000000
    7       19.338890   0.000000
    8       23.933641   0.000000
 
 -0.2000000E+00  0.1333333E+00  0.0000000E+00  0.7111111E-02
    1      -10.123737   1.000000
    2        2.884349   1.000000
    3        4.789233   1.000000
    4        7.496416   1.000000
    5       17.022930   0.000000
    6       18.012215   0.000000
    7       18.638534   0.000000
    8       23.504113   0.000000
 
 -0.1333333E+00  0.1333333E+00  0.0000000E+00  0.3555556E-02
    1      -10.873359   1.000000
    2        4.692366   1.000000
    3        5.542080   1.000000
    4        8.027403   1.000000
    5       16.281429   0.000000
    6       17.641462   0.000000
    7       17.668571   0.000000
    8       23.381469   0.000000
 
  0.2000000E+00  0.2000000E+00  0.0000000E+00  0.1777778E-02
    1      -10.712308   1.000000
    2        5.820718   1.000000
    3        5.820718   1.000000
    4        5.824634   1.000000
    5       14.290880   0.000000
    6       19.305276   0.000000
    7       19.305276   0.000000
    8       21.677058   0.000000
 
  0.2666667E+00  0.2000000E+00  0.0000000E+00  0.7111111E-02
    1      -10.118628   1.000000
    2        4.144969   1.000000
    3        5.268243   1.000000
    4        5.614607   1.000000
    5       14.463384   0.000000
    6       20.203081   0.000000
    7       20.234423   0.000000
    8       20.966677   0.000000
 
  0.3333333E+00  0.2000000E+00  0.0000000E+00  0.7111111E-02
    1       -9.299085   1.000000
    2        2.276134   1.000000
    3        4.872654   1.000000
    4        5.052561   1.000000
    5       15.091933   0.000000
    6       20.601264   0.000000
    7       20.868286   0.000000
    8       20.933389   0.000000
 
  0.4000000E+00  0.2000000E+00  0.0000000E+00  0.7111111E-02
    1       -8.272255   1.000000
    2        0.362165   1.000000
    3        4.360201   1.000000
    4        4.661664   1.000000
    5       15.761225   0.000000
    6       20.965987   0.000000
    7       21.130132   0.000000
    8       21.375480   0.000000
 
  0.4666667E+00  0.2000000E+00  0.0000000E+00  0.7111111E-02
    1       -7.088965   1.000000
    2       -1.453873   1.000000
    3        3.696781   1.000000
    4        4.645855   1.000000
    5       16.241114   0.000000
    6       21.059000   0.000000
    7       21.341765   0.000000
    8       22.333491   0.000000
 
 -0.4666667E+00  0.2000000E+00  0.0000000E+00  0.7111111E-02
    1       -5.978509   1.000000
    2       -2.885017   1.000000
    3        3.149968   1.000000
    4        4.823370   1.000000
    5       16.611196   0.000000
    6       20.744821   0.000000
    7       21.448227   0.000000
    8       23.782733   0.000000
 
 -0.4000000E+00  0.2000000E+00  0.0000000E+00  0.7111111E-02
    1       -5.994914   1.000000
    2       -2.849628   1.000000
    3        2.768761   1.000000
    4        5.181008   1.000000
    5       16.995661   0.000000
    6       20.255105   0.000000
    7       21.445690   0.000000
    8       24.816777   0.000000
 
 -0.3333333E+00  0.2000000E+00  0.0000000E+00  0.7111111E-02
    1       -7.107986   1.000000
    2       -1.379965   1.000000
    3        2.586083   1.000000
    4        5.692022   1.000000
    5       17.420995   0.000000
    6       19.602191   0.000000
    7       21.317329   0.000000
    8       24.482805   0.000000
 
 -0.2666667E+00  0.2000000E+00  0.0000000E+00  0.7111111E-02
    1       -8.285580   1.000000
    2        0.440444   1.000000
    3        2.647284   1.000000
    4        6.309627   1.000000
    5       17.822349   0.000000
    6       18.779728   0.000000
    7       20.877328   0.000000
    8       23.648448   0.000000
 
 -0.2000000E+00  0.2000000E+00  0.0000000E+00  0.3555556E-02
    1       -9.307627   1.000000
    2        2.086923   1.000000
    3        3.209621   1.000000
    4        6.954455   1.000000
    5       17.855359   0.000000
    6       18.066306   0.000000
    7       19.891704   0.000000
    8       23.335700   0.000000
 
  0.2666667E+00  0.2666667E+00  0.0000000E+00  0.1777778E-02
    1       -9.606106   1.000000
    2        3.919801   1.000000
    3        4.684978   1.000000
    4        4.684978   1.000000
    5       14.023819   0.000000
    6       19.726936   0.000000
    7       21.363907   0.000000
    8       21.363908   0.000000
 
  0.3333333E+00  0.2666667E+00  0.0000000E+00  0.7111111E-02
    1       -8.866850   1.000000
    2        2.568815   1.000000
    3        4.165750   1.000000
    4        4.256442   1.000000
    5       14.256489   0.000000
    6       18.985066   0.000000
    7       22.214998   0.000000
    8       22.218382   0.000000
 
  0.4000000E+00  0.2666667E+00  0.0000000E+00  0.7111111E-02
    1       -7.915918   1.000000
    2        0.991297   1.000000
    3        3.390562   1.000000
    4        4.015060   1.000000
    5       14.909790   0.000000
    6       18.947189   0.000000
    7       22.666780   0.000000
    8       22.754573   0.000000
 
  0.4666667E+00  0.2666667E+00  0.0000000E+00  0.7111111E-02
    1       -6.789344   1.000000
    2       -0.624126   1.000000
    3        2.542364   1.000000
    4        3.974724   1.000000
    5       15.497321   0.000000
    6       19.823461   0.000000
    7       22.703764   0.000000
    8       23.051019   0.000000
 
 -0.4666667E+00  0.2666667E+00  0.0000000E+00  0.7111111E-02
    1       -5.620463   1.000000
    2       -2.077220   1.000000
    3        1.799111   1.000000
    4        4.136115   1.000000
    5       15.907588   0.000000
    6       21.414456   0.000000
    7       22.392200   0.000000
    8       23.229624   0.000000
 
 -0.4000000E+00  0.2666667E+00  0.0000000E+00  0.7111111E-02
    1       -5.150983   1.000000
    2       -2.579155   1.000000
    3        1.249506   1.000000
    4        4.487918   1.000000
    5       16.313545   0.000000
    6       21.802266   0.000000
    7       22.820565   0.000000
    8       23.722323   0.000000
 
 -0.3333333E+00  0.2666667E+00  0.0000000E+00  0.7111111E-02
    1       -6.057936   1.000000
    2       -1.462822   1.000000
    3        0.964697   1.000000
    4        5.004429   1.000000
    5       16.799515   0.000000
    6       20.965646   0.000000
    7       22.985858   0.000000
    8       24.292396   0.000000
 
 -0.2666667E+00  0.2666667E+00  0.0000000E+00  0.3555556E-02
    1       -7.227264   1.000000
    2       -0.120162   1.000000
    3        1.232009   1.000000
    4        5.638706   1.000000
    5       17.339046   0.000000
    6       19.917087   0.000000
    7       22.395841   0.000000
    8       23.652539   0.000000
 
  0.3333333E+00  0.3333333E+00  0.0000000E+00  0.1777778E-02
    1       -8.208574   1.000000
    2        1.812109   1.000000
    3        3.787302   1.000000
    4        3.787302   1.000000
    5       13.902714   0.000000
    6       17.804945   0.000000
    7       23.322302   0.000000
    8       23.322303   0.000000
 
  0.4000000E+00  0.3333333E+00  0.0000000E+00  0.7111111E-02
    1       -7.336365   1.000000
    2        0.638522   1.000000
    3        3.176472   1.000000
    4        3.503303   1.000000
    5       14.228197   0.000000
    6       17.264777   0.000000
    7       24.018561   0.000000
    8       24.056886   0.000000
 
  0.4666667E+00  0.3333333E+00  0.0000000E+00  0.7111111E-02
    1       -6.277692   1.000000
    2       -0.574312   1.000000
    3        2.177986   1.000000
    4        3.422309   1.000000
    5       14.874223   0.000000
    6       17.608322   0.000000
    7       24.223735   0.000000
    8       24.456312   0.000000
 
 -0.4666667E+00  0.3333333E+00  0.0000000E+00  0.7111111E-02
    1       -5.116702   1.000000
    2       -1.729860   1.000000
    3        1.111959   1.000000
    4        3.548178   1.000000
    5       15.330109   0.000000
    6       19.017382   0.000000
    7       23.958224   0.000000
    8       24.625004   0.000000
 
 -0.4000000E+00  0.3333333E+00  0.0000000E+00  0.7111111E-02
    1       -4.331845   1.000000
    2       -2.416608   1.000000
    3        0.281296   1.000000
    4        3.872440   1.000000
    5       15.719076   0.000000
    6       21.038971   0.000000
    7       23.282991   0.000000
    8       24.648110   0.000000
 
 -0.3333333E+00  0.3333333E+00  0.0000000E+00  0.3555556E-02
    1       -4.960972   1.000000
    2       -1.822072   1.000000
    3        0.029694   1.000000
    4        4.372332   1.000000
    5       16.205768   0.000000
    6       22.253759   0.000000
    7       22.998727   0.000000
    8       24.446331   0.000000
 
  0.4000000E+00  0.4000000E+00  0.0000000E+00  0.1777778E-02
    1       -6.543298   1.000000
    2       -0.386270   1.000000
    3        3.171165   1.000000
    4        3.171165   1.000000
    5       14.003709   0.000000
    6       16.250364   0.000000
    7       24.969268   0.000000
    8       24.969269   0.000000
 
  0.4666667E+00  0.4000000E+00  0.0000000E+00  0.7111111E-02
    1       -5.558224   1.000000
    2       -1.475773   1.000000
    3        2.628289   1.000000
    4        3.041052   1.000000
    5       14.437212   0.000000
    6       15.966070   0.000000
    7       25.372553   0.000000
    8       25.455116   0.000000
 
 -0.4666667E+00  0.4000000E+00  0.0000000E+00  0.7111111E-02
    1       -4.438017   1.000000
    2       -2.463756   1.000000
    3        1.628214   1.000000
    4        3.120326   1.000000
    5       14.944131   0.000000
    6       16.835740   0.000000
    7       25.192497   0.000000
    8       25.578056   0.000000
 
 -0.4000000E+00  0.4000000E+00  0.0000000E+00  0.3555556E-02
    1       -3.663191   1.000000
    2       -2.973635   1.000000
    3        0.602905   1.000000
    4        3.403791   1.000000
    5       15.273727   0.000000
    6       18.744651   0.000000
    7       24.466336   0.000000
    8       25.358082   0.000000
 
  0.4666667E+00  0.4666667E+00  0.0000000E+00  0.1777778E-02
    1       -4.646400   1.000000
    2       -2.569963   1.000000
    3        2.858383   1.000000
    4        2.858383   1.000000
    5       14.390336   0.000000
    6       15.121510   0.000000
    7       25.960970   0.000000
    8       25.960972   0.000000
 
 -0.4666667E+00  0.4666667E+00  0.0000000E+00  0.3555556E-02
    1       -3.606419   1.000000
    2       -3.553881   1.000000
    3        2.450914   1.000000
    4        2.885386   1.000000
    5       14.773140   0.000000
    6       15.263035   0.000000
    7       25.895908   0.000000
    8       26.001613   0.000000
 
  0.2000000E+00  0.1333333E+00  0.6666667E-01  0.7111111E-02
    1      -11.351506   1.000000
    2        6.041912   1.000000
    3        6.621101   1.000000
    4        8.026247   1.000000
    5       15.213320   0.000000
    6       17.313103   0.000000
    7       17.349439   0.000000
    8       23.059060   0.000000
 
  0.2666667E+00  0.1333333E+00  0.6666667E-01  0.1422222E-01
    1      -10.753961   1.000000
    2        4.243788   1.000000
    3        5.872033   1.000000
    4        7.599740   1.000000
    5       15.808095   0.000000
    6       18.021115   0.000000
    7       18.228942   0.000000
    8       23.107828   0.000000
 
  0.3333333E+00  0.1333333E+00  0.6666667E-01  0.1422222E-01
    1       -9.928194   1.000000
    2        2.148378   1.000000
    3        5.394946   1.000000
    4        7.027672   1.000000
    5       16.551946   0.000000
    6       18.412239   0.000000
    7       18.968519   0.000000
    8       23.343170   0.000000
 
  0.4000000E+00  0.1333333E+00  0.6666667E-01  0.1422222E-01
    1       -8.891815   1.000000
    2        0.062422   1.000000
    3        5.089620   1.000000
    4        6.451911   1.000000
    5       17.182333   0.000000
    6       18.542458   0.000000
    7       19.426345   0.000000
    8       23.910644   0.000000
 
  0.4666667E+00  0.1333333E+00  0.6666667E-01  0.1422222E-01
    1       -7.693934   1.000000
    2       -1.871464   1.000000
    3        4.943456   1.000000
    4        5.972009   1.000000
    5       17.602511   0.000000
    6       18.489512   0.000000
    7       19.657468   0.000000
    8       24.691861   0.000000
 
 -0.4666667E+00  0.1333333E+00  0.6666667E-01  0.1422222E-01
    1       -6.559558   1.000000
    2       -3.383422   1.000000
    3        4.914093   1.000000
    4        5.678122   1.000000
    5       17.832660   0.000000
    6       18.379027   0.000000
    7       19.752008   0.000000
    8       25.291570   0.000000
 
  0.2666667E+00  0.2000000E+00  0.6666667E-01  0.7111111E-02
    1      -10.554450   1.000000
    2        4.633789   1.000000
    3        5.373613   1.000000
    4        6.743245   1.000000
    5       14.922543   0.000000
    6       19.009545   0.000000
    7       19.291821   0.000000
    8       22.039933   0.000000
 
  0.3333333E+00  0.2000000E+00  0.6666667E-01  0.1422222E-01
    1       -9.807331   1.000000
    2        2.913208   1.000000
    3        4.687422   1.000000
    4        6.263505   1.000000
    5       15.554673   0.000000
    6       19.483130   0.000000
    7       20.213056   0.000000
    8       21.752648   0.000000
 
  0.4000000E+00  0.2000000E+00  0.6666667E-01  0.1422222E-01
    1       -8.844203   1.000000
    2        0.944993   1.000000
    3        4.301382   1.000000
    4        5.683604   1.000000
    5       16.294299   0.000000
    6       19.656452   0.000000
    7       20.802438   0.000000
    8       22.051251   0.000000
 
  0.4666667E+00  0.2000000E+00  0.6666667E-01  0.1422222E-01
    1       -7.699377   1.000000
    2       -0.974100   1.000000
    3        4.045812   1.000000
    4        5.191316   1.000000
    5       16.858772   0.000000
    6       19.597903   0.000000
    7       21.114913   0.000000
    8       22.956293   0.000000
 
 -0.4666667E+00  0.2000000E+00  0.6666667E-01  0.1422222E-01
    1       -6.500767   1.000000
    2       -2.634105   1.000000
    3        3.815559   1.000000
    4        4.966682   1.000000
    5       17.242600   0.000000
    6       19.397994   0.000000
    7       21.257166   0.000000
    8       24.133315   0.000000
 
 -0.4000000E+00  0.2000000E+00  0.6666667E-01  0.1422222E-01
    1       -5.975928   1.000000
    2       -3.271631   1.000000
    3        3.581946   1.000000
    4        5.077766   1.000000
    5       17.569028   0.000000
    6       19.102187   0.000000
    7       21.255876   0.000000
    8       24.905774   0.000000
 
 -0.3333333E+00  0.2000000E+00  0.6666667E-01  0.1422222E-01
    1       -6.893516   1.000000
    2       -2.109788   1.000000
    3        3.435025   1.000000
    4        5.444789   1.000000
    5       17.891917   0.000000
    6       18.712545   0.000000
    7       21.132813   0.000000
    8       24.533003   0.000000
 
 -0.2666667E+00  0.2000000E+00  0.6666667E-01  0.1422222E-01
    1       -8.102377   1.000000
    2       -0.318306   1.000000
    3        3.449306   1.000000
    4        5.979316   1.000000
    5       17.954282   0.000000
    6       18.394806   0.000000
    7       20.857628   0.000000
    8       23.583841   0.000000
 
 -0.2000000E+00  0.2000000E+00  0.6666667E-01  0.1422222E-01
    1       -9.191264   1.000000
    2        1.625329   1.000000
    3        3.680179   1.000000
    4        6.598382   1.000000
    5       17.259899   0.000000
    6       18.506365   0.000000
    7       20.284826   0.000000
    8       22.913539   0.000000
 
 -0.1333333E+00  0.2000000E+00  0.6666667E-01  0.7111111E-02
    1      -10.083382   1.000000
    2        3.346627   1.000000
    3        4.351852   1.000000
    4        7.189844   1.000000
    5       16.424700   0.000000
    6       18.428134   0.000000
    7       19.327309   0.000000
    8       22.844100   0.000000
 
  0.3333333E+00  0.2666667E+00  0.6666667E-01  0.7111111E-02
    1       -9.452109   1.000000
    2        3.184506   1.000000
    3        4.264800   1.000000
    4        5.219722   1.000000
    5       14.668105   0.000000
    6       20.175209   0.000000
    7       20.851648   0.000000
    8       21.370923   0.000000
 
  0.4000000E+00  0.2666667E+00  0.6666667E-01  0.1422222E-01
    1       -8.566452   1.000000
    2        1.644681   1.000000
    3        3.603244   1.000000
    4        4.719229   1.000000
    5       15.352194   0.000000
    6       19.939260   0.000000
    7       21.143317   0.000000
    8       22.258985   0.000000
 
  0.4666667E+00  0.2666667E+00  0.6666667E-01  0.1422222E-01
    1       -7.487424   1.000000
    2       -0.093160   1.000000
    3        3.114543   1.000000
    4        4.285847   1.000000
    5       16.054365   0.000000
    6       20.447257   0.000000
    7       21.187583   0.000000
    8       22.810660   0.000000
 
 -0.4666667E+00  0.2666667E+00  0.6666667E-01  0.1422222E-01
    1       -6.294263   1.000000
    2       -1.741985   1.000000
    3        2.606768   1.000000
    4        4.161220   1.000000
    5       16.533422   0.000000
    6       20.916307   0.000000
    7       21.756293   0.000000
    8       23.117394   0.000000
 
 -0.4000000E+00  0.2666667E+00  0.6666667E-01  0.1422222E-01
    1       -5.408725   1.000000
    2       -2.803056   1.000000
    3        2.144950   1.000000
    4        4.340898   1.000000
    5       16.918929   0.000000
    6       20.601244   0.000000
    7       22.630856   0.000000
    8       23.775152   0.000000
 
 -0.3333333E+00  0.2666667E+00  0.6666667E-01  0.1422222E-01
    1       -5.946702   1.000000
    2       -2.136158   1.000000
    3        1.832551   1.000000
    4        4.748290   1.000000
    5       17.342183   0.000000
    6       20.078410   0.000000
    7       22.612377   0.000000
    8       24.337950   0.000000
 
 -0.2666667E+00  0.2666667E+00  0.6666667E-01  0.1422222E-01
    1       -7.120520   1.000000
    2       -0.565036   1.000000
    3        1.754471   1.000000
    4        5.318467   1.000000
    5       17.816430   0.000000
    6       19.301099   0.000000
    7       22.371044   0.000000
    8       23.491329   0.000000
 
 -0.2000000E+00  0.2666667E+00  0.6666667E-01  0.7111111E-02
    1       -8.243500   1.000000
    2        0.929102   1.000000
    3        2.194341   1.000000
    4        5.974257   1.000000
    5       18.257184   0.000000
    6       18.287751   0.000000
    7       21.624278   0.000000
    8       22.801546   0.000000
 
  0.4000000E+00  0.3333333E+00  0.6666667E-01  0.7111111E-02
    1       -8.061318   1.000000
    2        1.525096   1.000000
    3        3.392277   1.000000
    4        3.891258   1.000000
    5       14.550176   0.000000
    6       18.320034   0.000000
    7       22.688257   0.000000
    8       23.343209   0.000000
 
  0.4666667E+00  0.3333333E+00  0.6666667E-01  0.1422222E-01
    1       -7.055580   1.000000
    2        0.251620   1.000000
    3        2.597554   1.000000
    4        3.517129   1.000000
    5       15.287240   0.000000
    6       18.373303   0.000000
    7       22.828112   0.000000
    8       24.061718   0.000000
 
 -0.4666667E+00  0.3333333E+00  0.6666667E-01  0.1422222E-01
    1       -5.903157   1.000000
    2       -1.101401   1.000000
    3        1.714155   1.000000
    4        3.446159   1.000000
    5       15.891899   0.000000
    6       19.418157   0.000000
    7       22.709033   0.000000
    8       24.331742   0.000000
 