    2    2    1    1
  0.5643294E+01  0.2517827E-09  0.2517827E-09  0.2517827E-09  0.5000000E-15
  1.000000000000000E-004
  CAR 
 Diamont Test Results                    
      8      3      8
 
  0.0000000E+00  0.0000000E+00  0.0000000E+00  0.1250000E+00
    1      -11.960482   1.000000
    2        9.286358   1.000000
    3        9.286387   1.000000
    4        9.286389   1.000000
    5       15.338954   0.000000
    6       15.338973   0.000000
    7       15.338977   0.000000
    8       23.071829   0.000000
 
  0.5000000E+00  0.2114441E-16  0.0000000E+00  0.5000000E+00
    1       -6.382195   1.000000
    2       -3.725948   1.000000
    3        6.493557   1.000000
    4        6.493579   1.000000
    5       18.301051   0.000000
    6       18.301075   0.000000
    7       18.595905   0.000000
    8       26.442009   0.000000
 
  0.5000000E+00  0.5000000E+00  0.0000000E+00  0.3750000E+00
    1       -3.376679   1.000000
    2       -3.376679   1.000000
    3        3.137377   1.000000
    4        3.137390   1.000000
    5       14.936073   0.000000
    6       14.936085   0.000000
    7       26.994810   0.000000
    8       26.994837   0.000000
