PROCAR lm decomposed
# of k-points:    3         # of bands:    8         # of ions:    2

 k-point     1 :    0.00000000 0.00000000 0.00000000     weight = 0.12500000

band     1 # energy  -11.96048157 # occ.  2.00000000
 
ion      s     py     pz     px    dxy    dyz    dz2    dxz  x2-y2    tot
    1  0.286  0.000  0.000  0.000  0.000  0.000  0.000  0.000  0.000  0.286
    2  0.286  0.000  0.000  0.000  0.000  0.000  0.000  0.000  0.000  0.286
tot    0.573  0.000  0.000  0.000  0.000  0.000  0.000  0.000  0.000  0.573
 
band     2 # energy    9.28635824 # occ.  2.00000000
 
ion      s     py     pz     px    dxy    dyz    dz2    dxz  x2-y2    tot
    1  0.000  0.047  0.250  0.085  0.000  0.000  0.000  0.000  0.000  0.382
    2  0.000  0.047  0.250  0.085  0.000  0.000  0.000  0.000  0.000  0.382
tot    0.000  0.094  0.500  0.170  0.000  0.000  0.000  0.000  0.000  0.765
 
band     3 # energy    9.28638715 # occ.  2.00000000
 
ion      s     py     pz     px    dxy    dyz    dz2    dxz  x2-y2    tot
    1  0.000  0.237  0.106  0.039  0.000  0.000  0.000  0.000  0.000  0.382
    2  0.000  0.237  0.106  0.039  0.000  0.000  0.000  0.000  0.000  0.382
tot    0.000  0.474  0.213  0.077  0.000  0.000  0.000  0.000  0.000  0.765
 
band     4 # energy    9.28638862 # occ.  2.00000000
 
ion      s     py     pz     px    dxy    dyz    dz2    dxz  x2-y2    tot
    1  0.000  0.098  0.026  0.258  0.000  0.000  0.000  0.000  0.000  0.382
    2  0.000  0.098  0.026  0.258  0.000  0.000  0.000  0.000  0.000  0.382
tot    0.000  0.196  0.052  0.517  0.000  0.000  0.000  0.000  0.000  0.765
 
band     5 # energy   15.33895440 # occ.  0.00000000
 
ion      s     py     pz     px    dxy    dyz    dz2    dxz  x2-y2    tot
    1  0.000  0.024  0.202  0.076  0.000  0.000  0.000  0.000  0.000  0.302
    2  0.000  0.024  0.202  0.076  0.000  0.000  0.000  0.000  0.000  0.302
tot    0.000  0.047  0.404  0.153  0.000  0.000  0.000  0.000  0.000  0.604
 
band     6 # energy   15.33897310 # occ.  0.00000000
 
ion      s     py     pz     px    dxy    dyz    dz2    dxz  x2-y2    tot
    1  0.000  0.047  0.043  0.211  0.000  0.000  0.000  0.000  0.000  0.302
    2  0.000  0.047  0.043  0.211  0.000  0.000  0.000  0.000  0.000  0.302
tot    0.000  0.095  0.087  0.422  0.000  0.000  0.000  0.000  0.000  0.604
 
band     7 # energy   15.33897682 # occ.  0.00000000
 
ion      s     py     pz     px    dxy    dyz    dz2    dxz  x2-y2    tot
    1  0.000  0.231  0.057  0.014  0.000  0.000  0.000  0.000  0.000  0.302
    2  0.000  0.231  0.057  0.014  0.000  0.000  0.000  0.000  0.000  0.302
tot    0.000  0.462  0.113  0.029  0.000  0.000  0.000  0.000  0.000  0.604
 
band     8 # energy   23.07182887 # occ.  0.00000000
 
ion      s     py     pz     px    dxy    dyz    dz2    dxz  x2-y2    tot
    1  0.394  0.000  0.000  0.000  0.000  0.000  0.000  0.000  0.000  0.394
    2  0.394  0.000  0.000  0.000  0.000  0.000  0.000  0.000  0.000  0.394
tot    0.788  0.000  0.000  0.000  0.000  0.000  0.000  0.000  0.000  0.788
 

 k-point     2 :    0.50000000 0.00000000 0.00000000     weight = 0.50000000

band     1 # energy   -6.38219537 # occ.  2.00000000
 
ion      s     py     pz     px    dxy    dyz    dz2    dxz  x2-y2    tot
    1  0.299  0.004  0.000  0.029  0.000  0.000  0.000  0.000  0.000  0.331
    2  0.299  0.004  0.000  0.029  0.000  0.000  0.000  0.000  0.000  0.331
tot    0.597  0.007  0.000  0.058  0.000  0.000  0.000  0.000  0.000  0.662
 
band     2 # energy   -3.72594773 # occ.  2.00000000
 
ion      s     py     pz     px    dxy    dyz    dz2    dxz  x2-y2    tot
    1  0.084  0.022  0.000  0.173  0.000  0.000  0.000  0.000  0.000  0.280
    2  0.084  0.022  0.000  0.173  0.000  0.000  0.000  0.000  0.000  0.280
tot    0.169  0.043  0.000  0.347  0.000  0.000  0.000  0.000  0.000  0.559
 
band     3 # energy    6.49355666 # occ.  2.00000000
 
ion      s     py     pz     px    dxy    dyz    dz2    dxz  x2-y2    tot
    1  0.000  0.092  0.266  0.011  0.000  0.000  0.000  0.000  0.000  0.369
    2  0.000  0.092  0.266  0.011  0.000  0.000  0.000  0.000  0.000  0.369
tot    0.000  0.184  0.531  0.023  0.000  0.000  0.000  0.000  0.000  0.738
 
band     4 # energy    6.49357917 # occ.  2.00000000
 
ion      s     py     pz     px    dxy    dyz    dz2    dxz  x2-y2    tot
    1  0.000  0.236  0.103  0.030  0.000  0.000  0.000  0.000  0.000  0.369
    2  0.000  0.236  0.103  0.030  0.000  0.000  0.000  0.000  0.000  0.369
tot    0.000  0.472  0.207  0.059  0.000  0.000  0.000  0.000  0.000  0.738
 
band     5 # energy   18.30105105 # occ.  0.00000000
 
ion      s     py     pz     px    dxy    dyz    dz2    dxz  x2-y2    tot
    1  0.000  0.057  0.205  0.007  0.000  0.000  0.000  0.000  0.000  0.269
    2  0.000  0.057  0.205  0.007  0.000  0.000  0.000  0.000  0.000  0.269
tot    0.000  0.113  0.411  0.014  0.000  0.000  0.000  0.000  0.000  0.538
 
band     6 # energy   18.30107520 # occ.  0.00000000
 
ion      s     py     pz     px    dxy    dyz    dz2    dxz  x2-y2    tot
    1  0.000  0.182  0.064  0.023  0.000  0.000  0.000  0.000  0.000  0.269
    2  0.000  0.182  0.064  0.023  0.000  0.000  0.000  0.000  0.000  0.269
tot    0.000  0.365  0.127  0.046  0.000  0.000  0.000  0.000  0.000  0.538
 
band     7 # energy   18.59590492 # occ.  0.00000000
 
ion      s     py     pz     px    dxy    dyz    dz2    dxz  x2-y2    tot
    1  0.278  0.003  0.000  0.021  0.000  0.000  0.000  0.000  0.000  0.302
    2  0.278  0.003  0.000  0.021  0.000  0.000  0.000  0.000  0.000  0.302
tot    0.556  0.005  0.000  0.042  0.000  0.000  0.000  0.000  0.000  0.603
 
band     8 # energy   26.44200884 # occ.  0.00000000
 
ion      s     py     pz     px    dxy    dyz    dz2    dxz  x2-y2    tot
    1  0.002  0.030  0.000  0.238  0.000  0.000  0.000  0.000  0.000  0.270
    2  0.002  0.030  0.000  0.238  0.000  0.000  0.000  0.000  0.000  0.270
tot    0.004  0.060  0.000  0.477  0.000  0.000  0.000  0.000  0.000  0.540
 

 k-point     3 :    0.50000000 0.50000000 0.00000000     weight = 0.37500000

band     1 # energy   -3.37667921 # occ.  2.00000000
 
ion      s     py     pz     px    dxy    dyz    dz2    dxz  x2-y2    tot
    1  0.214  0.038  0.000  0.076  0.000  0.000  0.000  0.000  0.000  0.327
    2  0.214  0.038  0.000  0.076  0.000  0.000  0.000  0.000  0.000  0.327
tot    0.428  0.076  0.000  0.151  0.000  0.000  0.000  0.000  0.000  0.654
 
band     2 # energy   -3.37667874 # occ.  2.00000000
 
ion      s     py     pz     px    dxy    dyz    dz2    dxz  x2-y2    tot
    1  0.214  0.038  0.000  0.076  0.000  0.000  0.000  0.000  0.000  0.327
    2  0.214  0.038  0.000  0.076  0.000  0.000  0.000  0.000  0.000  0.327
tot    0.428  0.076  0.000  0.151  0.000  0.000  0.000  0.000  0.000  0.654
 
band     3 # energy    3.13737693 # occ.  2.00000000
 
ion      s     py     pz     px    dxy    dyz    dz2    dxz  x2-y2    tot
    1  0.000  0.000  0.338  0.000  0.000  0.000  0.000  0.000  0.000  0.338
    2  0.000  0.000  0.338  0.000  0.000  0.000  0.000  0.000  0.000  0.338
tot    0.000  0.000  0.676  0.000  0.000  0.000  0.000  0.000  0.000  0.676
 
band     4 # energy    3.13739035 # occ.  2.00000000
 
ion      s     py     pz     px    dxy    dyz    dz2    dxz  x2-y2    tot
    1  0.000  0.225  0.000  0.113  0.000  0.000  0.000  0.000  0.000  0.338
    2  0.000  0.225  0.000  0.113  0.000  0.000  0.000  0.000  0.000  0.338
tot    0.000  0.451  0.000  0.225  0.000  0.000  0.000  0.000  0.000  0.676
 
band     5 # energy   14.93607317 # occ.  0.00000000
 
ion      s     py     pz     px    dxy    dyz    dz2    dxz  x2-y2    tot
    1  0.110  0.021  0.000  0.041  0.000  0.000  0.000  0.000  0.000  0.172
    2  0.110  0.021  0.000  0.041  0.000  0.000  0.000  0.000  0.000  0.172
tot    0.220  0.041  0.000  0.083  0.000  0.000  0.000  0.000  0.000  0.344
 
band     6 # energy   14.93608503 # occ.  0.00000000
 
ion      s     py     pz     px    dxy    dyz    dz2    dxz  x2-y2    tot
    1  0.110  0.021  0.000  0.041  0.000  0.000  0.000  0.000  0.000  0.172
    2  0.110  0.021  0.000  0.041  0.000  0.000  0.000  0.000  0.000  0.172
tot    0.220  0.041  0.000  0.083  0.000  0.000  0.000  0.000  0.000  0.344
 
band     7 # energy   26.99480979 # occ.  0.00000000
 
ion      s     py     pz     px    dxy    dyz    dz2    dxz  x2-y2    tot
    1  0.000  0.000  0.427  0.000  0.000  0.000  0.000  0.000  0.000  0.427
    2  0.000  0.000  0.427  0.000  0.000  0.000  0.000  0.000  0.000  0.427
tot    0.000  0.000  0.853  0.000  0.000  0.000  0.000  0.000  0.000  0.853
 
band     8 # energy   26.99483705 # occ.  0.00000000
 
ion      s     py     pz     px    dxy    dyz    dz2    dxz  x2-y2    tot
    1  0.000  0.284  0.000  0.142  0.000  0.000  0.000  0.000  0.000  0.427
    2  0.000  0.284  0.000  0.142  0.000  0.000  0.000  0.000  0.000  0.427
tot    0.000  0.569  0.000  0.284  0.000  0.000  0.000  0.000  0.000  0.853
 
