PROCAR lm decomposed
# of k-points:  120         # of bands:    8         # of ions:    2

 k-point     1 :    0.00000000 0.00000000 0.00000000     weight = 0.00029630

band     1 # energy  -12.15594409 # occ.  2.00000000
 
ion      s     py     pz     px    dxy    dyz    dz2    dxz  x2-y2    tot
    1  0.287  0.000  0.000  0.000  0.000  0.000  0.000  0.000  0.000  0.287
    2  0.287  0.000  0.000  0.000  0.000  0.000  0.000  0.000  0.000  0.287
tot    0.575  0.000  0.000  0.000  0.000  0.000  0.000  0.000  0.000  0.575
 
band     2 # energy    8.87464748 # occ.  2.00000000
 
ion      s     py     pz     px    dxy    dyz    dz2    dxz  x2-y2    tot
    1  0.000  0.196  0.081  0.101  0.000  0.000  0.000  0.000  0.000  0.378
    2  0.000  0.196  0.081  0.101  0.000  0.000  0.000  0.000  0.000  0.378
tot    0.000  0.393  0.161  0.202  0.000  0.000  0.000  0.000  0.000  0.756
 
band     3 # energy    8.87464876 # occ.  2.00000000
 
ion      s     py     pz     px    dxy    dyz    dz2    dxz  x2-y2    tot
    1  0.000  0.084  0.288  0.006  0.000  0.000  0.000  0.000  0.000  0.378
    2  0.000  0.084  0.288  0.006  0.000  0.000  0.000  0.000  0.000  0.378
tot    0.000  0.169  0.576  0.011  0.000  0.000  0.000  0.000  0.000  0.756
 
band     4 # energy    8.87464996 # occ.  2.00000000
 
ion      s     py     pz     px    dxy    dyz    dz2    dxz  x2-y2    tot
    1  0.000  0.097  0.009  0.271  0.000  0.000  0.000  0.000  0.000  0.378
    2  0.000  0.097  0.009  0.271  0.000  0.000  0.000  0.000  0.000  0.378
tot    0.000  0.195  0.019  0.543  0.000  0.000  0.000  0.000  0.000  0.756
 
band     5 # energy   14.97164665 # occ.  0.00000000
 
ion      s     py     pz     px    dxy    dyz    dz2    dxz  x2-y2    tot
    1  0.000  0.030  0.000  0.270  0.000  0.000  0.000  0.000  0.000  0.301
    2  0.000  0.030  0.000  0.270  0.000  0.000  0.000  0.000  0.000  0.301
tot    0.000  0.061  0.000  0.541  0.000  0.000  0.000  0.000  0.000  0.602
 
band     6 # energy   14.97164932 # occ.  0.00000000
 
ion      s     py     pz     px    dxy    dyz    dz2    dxz  x2-y2    tot
    1  0.000  0.001  0.300  0.000  0.000  0.000  0.000  0.000  0.000  0.301
    2  0.000  0.001  0.300  0.000  0.000  0.000  0.000  0.000  0.000  0.301
tot    0.000  0.002  0.600  0.000  0.000  0.000  0.000  0.000  0.000  0.602
 
band     7 # energy   14.97165120 # occ.  0.00000000
 
ion      s     py     pz     px    dxy    dyz    dz2    dxz  x2-y2    tot
    1  0.000  0.269  0.001  0.031  0.000  0.000  0.000  0.000  0.000  0.301
    2  0.000  0.269  0.001  0.031  0.000  0.000  0.000  0.000  0.000  0.301
tot    0.000  0.539  0.002  0.061  0.000  0.000  0.000  0.000  0.000  0.602
 
band     8 # energy   22.78802689 # occ.  0.00000000
 
ion      s     py     pz     px    dxy    dyz    dz2    dxz  x2-y2    tot
    1  0.408  0.000  0.000  0.000  0.000  0.000  0.000  0.000  0.000  0.408
    2  0.408  0.000  0.000  0.000  0.000  0.000  0.000  0.000  0.000  0.408
tot    0.816  0.000  0.000  0.000  0.000  0.000  0.000  0.000  0.000  0.816
 

 k-point     2 :    0.06666667-0.00000000 0.00000000     weight = 0.00237037

band     1 # energy  -12.03483711 # occ.  2.00000000
 
ion      s     py     pz     px    dxy    dyz    dz2    dxz  x2-y2    tot
    1  0.286  0.000  0.000  0.001  0.000  0.000  0.000  0.000  0.000  0.288
    2  0.286  0.000  0.000  0.001  0.000  0.000  0.000  0.000  0.000  0.288
tot    0.572  0.000  0.000  0.003  0.000  0.000  0.000  0.000  0.000  0.576
 
band     2 # energy    8.10860126 # occ.  2.00000000
 
ion      s     py     pz     px    dxy    dyz    dz2    dxz  x2-y2    tot
    1  0.011  0.040  0.000  0.317  0.000  0.000  0.000  0.000  0.000  0.368
    2  0.011  0.040  0.000  0.317  0.000  0.000  0.000  0.000  0.000  0.368
tot    0.022  0.079  0.000  0.634  0.000  0.000  0.000  0.000  0.000  0.736
 
band     3 # energy    8.67669963 # occ.  2.00000000
 
ion      s     py     pz     px    dxy    dyz    dz2    dxz  x2-y2    tot
    1  0.000  0.268  0.074  0.034  0.000  0.000  0.000  0.000  0.000  0.376
    2  0.000  0.268  0.074  0.034  0.000  0.000  0.000  0.000  0.000  0.376
tot    0.000  0.536  0.148  0.067  0.000  0.000  0.000  0.000  0.000  0.751
 
band     4 # energy    8.67670074 # occ.  2.00000000
 
ion      s     py     pz     px    dxy    dyz    dz2    dxz  x2-y2    tot
    1  0.000  0.066  0.302  0.008  0.000  0.000  0.000  0.000  0.000  0.376
    2  0.000  0.066  0.302  0.008  0.000  0.000  0.000  0.000  0.000  0.376
tot    0.000  0.132  0.603  0.016  0.000  0.000  0.000  0.000  0.000  0.751
 
band     5 # energy   15.23711796 # occ.  0.00000000
 
ion      s     py     pz     px    dxy    dyz    dz2    dxz  x2-y2    tot
    1  0.000  0.000  0.304  0.000  0.000  0.000  0.000  0.000  0.000  0.304
    2  0.000  0.000  0.304  0.000  0.000  0.000  0.000  0.000  0.000  0.304
tot    0.000  0.001  0.607  0.000  0.000  0.000  0.000  0.000  0.000  0.608
 
band     6 # energy   15.23711982 # occ.  0.00000000
 
ion      s     py     pz     px    dxy    dyz    dz2    dxz  x2-y2    tot
    1  0.000  0.270  0.000  0.034  0.000  0.000  0.000  0.000  0.000  0.304
    2  0.000  0.270  0.000  0.034  0.000  0.000  0.000  0.000  0.000  0.304
tot    0.000  0.540  0.001  0.067  0.000  0.000  0.000  0.000  0.000  0.608
 
band     7 # energy   15.43999285 # occ.  0.00000000
 
ion      s     py     pz     px    dxy    dyz    dz2    dxz  x2-y2    tot
    1  0.008  0.033  0.000  0.266  0.000  0.000  0.000  0.000  0.000  0.307
    2  0.008  0.033  0.000  0.266  0.000  0.000  0.000  0.000  0.000  0.307
tot    0.016  0.067  0.000  0.532  0.000  0.000  0.000  0.000  0.000  0.615
 
band     8 # energy   22.89830063 # occ.  0.00000000
 
ion      s     py     pz     px    dxy    dyz    dz2    dxz  x2-y2    tot
    1  0.391  0.002  0.000  0.015  0.000  0.000  0.000  0.000  0.000  0.407
    2  0.391  0.002  0.000  0.015  0.000  0.000  0.000  0.000  0.000  0.407
tot    0.781  0.004  0.000  0.029  0.000  0.000  0.000  0.000  0.000  0.814
 

 k-point     3 :    0.13333333-0.00000000 0.00000000     weight = 0.00237037

band     1 # energy  -11.67253564 # occ.  2.00000000
 
ion      s     py     pz     px    dxy    dyz    dz2    dxz  x2-y2    tot
    1  0.283  0.001  0.000  0.006  0.000  0.000  0.000  0.000  0.000  0.289
    2  0.283  0.001  0.000  0.006  0.000  0.000  0.000  0.000  0.000  0.289
tot    0.566  0.001  0.000  0.012  0.000  0.000  0.000  0.000  0.000  0.579
 
band     2 # energy    6.34756354 # occ.  2.00000000
 
ion      s     py     pz     px    dxy    dyz    dz2    dxz  x2-y2    tot
    1  0.035  0.035  0.000  0.282  0.000  0.000  0.000  0.000  0.000  0.351
    2  0.035  0.035  0.000  0.282  0.000  0.000  0.000  0.000  0.000  0.351
tot    0.069  0.070  0.000  0.563  0.000  0.000  0.000  0.000  0.000  0.703
 
band     3 # energy    8.19377360 # occ.  2.00000000
 
ion      s     py     pz     px    dxy    dyz    dz2    dxz  x2-y2    tot
    1  0.000  0.279  0.057  0.035  0.000  0.000  0.000  0.000  0.000  0.371
    2  0.000  0.279  0.057  0.035  0.000  0.000  0.000  0.000  0.000  0.371
tot    0.000  0.558  0.115  0.070  0.000  0.000  0.000  0.000  0.000  0.742
 
band     4 # energy    8.19377470 # occ.  2.00000000
 
ion      s     py     pz     px    dxy    dyz    dz2    dxz  x2-y2    tot
    1  0.000  0.051  0.314  0.006  0.000  0.000  0.000  0.000  0.000  0.371
    2  0.000  0.051  0.314  0.006  0.000  0.000  0.000  0.000  0.000  0.371
tot    0.000  0.102  0.627  0.013  0.000  0.000  0.000  0.000  0.000  0.742
 
band     5 # energy   15.89053933 # occ.  0.00000000
 
ion      s     py     pz     px    dxy    dyz    dz2    dxz  x2-y2    tot
    1  0.000  0.000  0.310  0.000  0.000  0.000  0.000  0.000  0.000  0.310
    2  0.000  0.000  0.310  0.000  0.000  0.000  0.000  0.000  0.000  0.310
tot    0.000  0.000  0.620  0.000  0.000  0.000  0.000  0.000  0.000  0.620
 
band     6 # energy   15.89054116 # occ.  0.00000000
 
ion      s     py     pz     px    dxy    dyz    dz2    dxz  x2-y2    tot
    1  0.000  0.276  0.000  0.034  0.000  0.000  0.000  0.000  0.000  0.310
    2  0.000  0.276  0.000  0.034  0.000  0.000  0.000  0.000  0.000  0.310
tot    0.000  0.551  0.000  0.069  0.000  0.000  0.000  0.000  0.000  0.620
 
band     7 # energy   16.33529607 # occ.  0.00000000
 
ion      s     py     pz     px    dxy    dyz    dz2    dxz  x2-y2    tot
    1  0.041  0.030  0.000  0.242  0.000  0.000  0.000  0.000  0.000  0.313
    2  0.041  0.030  0.000  0.242  0.000  0.000  0.000  0.000  0.000  0.313
tot    0.083  0.060  0.000  0.484  0.000  0.000  0.000  0.000  0.000  0.627
 
band     8 # energy   23.22748570 # occ.  0.00000000
 
ion      s     py     pz     px    dxy    dyz    dz2    dxz  x2-y2    tot
    1  0.338  0.007  0.000  0.058  0.000  0.000  0.000  0.000  0.000  0.403
    2  0.338  0.007  0.000  0.058  0.000  0.000  0.000  0.000  0.000  0.403
tot    0.675  0.014  0.000  0.115  0.000  0.000  0.000  0.000  0.000  0.805
 

 k-point     4 :    0.20000000-0.00000000 0.00000000     weight = 0.00237037

band     1 # energy  -11.07269900 # occ.  2.00000000
 
ion      s     py     pz     px    dxy    dyz    dz2    dxz  x2-y2    tot
    1  0.278  0.002  0.000  0.013  0.000  0.000  0.000  0.000  0.000  0.292
    2  0.278  0.002  0.000  0.013  0.000  0.000  0.000  0.000  0.000  0.292
tot    0.555  0.003  0.000  0.026  0.000  0.000  0.000  0.000  0.000  0.584
 
band     2 # energy    4.21680232 # occ.  2.00000000
 
ion      s     py     pz     px    dxy    dyz    dz2    dxz  x2-y2    tot
    1  0.060  0.031  0.000  0.246  0.000  0.000  0.000  0.000  0.000  0.337
    2  0.060  0.031  0.000  0.246  0.000  0.000  0.000  0.000  0.000  0.337
tot    0.120  0.062  0.000  0.492  0.000  0.000  0.000  0.000  0.000  0.674
 
band     3 # energy    7.61704391 # occ.  2.00000000
 
ion      s     py     pz     px    dxy    dyz    dz2    dxz  x2-y2    tot
    1  0.000  0.290  0.041  0.036  0.000  0.000  0.000  0.000  0.000  0.368
    2  0.000  0.290  0.041  0.036  0.000  0.000  0.000  0.000  0.000  0.368
tot    0.000  0.581  0.082  0.073  0.000  0.000  0.000  0.000  0.000  0.735
 
band     4 # energy    7.61704507 # occ.  2.00000000
 
ion      s     py     pz     px    dxy    dyz    dz2    dxz  x2-y2    tot
    1  0.000  0.036  0.327  0.005  0.000  0.000  0.000  0.000  0.000  0.368
    2  0.000  0.036  0.327  0.005  0.000  0.000  0.000  0.000  0.000  0.368
tot    0.000  0.073  0.653  0.009  0.000  0.000  0.000  0.000  0.000  0.735
 
band     5 # energy   16.65429972 # occ.  0.00000000
 
ion      s     py     pz     px    dxy    dyz    dz2    dxz  x2-y2    tot
    1  0.000  0.000  0.312  0.000  0.000  0.000  0.000  0.000  0.000  0.312
    2  0.000  0.000  0.312  0.000  0.000  0.000  0.000  0.000  0.000  0.312
tot    0.000  0.000  0.624  0.000  0.000  0.000  0.000  0.000  0.000  0.624
 
band     6 # energy   16.65430142 # occ.  0.00000000
 
ion      s     py     pz     px    dxy    dyz    dz2    dxz  x2-y2    tot
    1  0.000  0.277  0.000  0.035  0.000  0.000  0.000  0.000  0.000  0.312
    2  0.000  0.277  0.000  0.035  0.000  0.000  0.000  0.000  0.000  0.312
tot    0.000  0.554  0.000  0.069  0.000  0.000  0.000  0.000  0.000  0.624
 
band     7 # energy   17.12185165 # occ.  0.00000000
 
ion      s     py     pz     px    dxy    dyz    dz2    dxz  x2-y2    tot
    1  0.101  0.024  0.000  0.190  0.000  0.000  0.000  0.000  0.000  0.315
    2  0.101  0.024  0.000  0.190  0.000  0.000  0.000  0.000  0.000  0.315
tot    0.203  0.047  0.000  0.380  0.000  0.000  0.000  0.000  0.000  0.630
 
band     8 # energy   23.74923514 # occ.  0.00000000
 
ion      s     py     pz     px    dxy    dyz    dz2    dxz  x2-y2    tot
    1  0.256  0.015  0.000  0.121  0.000  0.000  0.000  0.000  0.000  0.392
    2  0.256  0.015  0.000  0.121  0.000  0.000  0.000  0.000  0.000  0.392
tot    0.512  0.030  0.000  0.243  0.000  0.000  0.000  0.000  0.000  0.785
 

 k-point     5 :    0.26666667 0.00000000 0.00000000     weight = 0.00237037

band     1 # energy  -10.24325823 # occ.  2.00000000
 
ion      s     py     pz     px    dxy    dyz    dz2    dxz  x2-y2    tot
    1  0.271  0.003  0.000  0.022  0.000  0.000  0.000  0.000  0.000  0.296
    2  0.271  0.003  0.000  0.022  0.000  0.000  0.000  0.000  0.000  0.296
tot    0.543  0.006  0.000  0.044  0.000  0.000  0.000  0.000  0.000  0.592
 
band     2 # energy    2.00336191 # occ.  2.00000000
 
ion      s     py     pz     px    dxy    dyz    dz2    dxz  x2-y2    tot
    1  0.084  0.027  0.000  0.214  0.000  0.000  0.000  0.000  0.000  0.325
    2  0.084  0.027  0.000  0.214  0.000  0.000  0.000  0.000  0.000  0.325
tot    0.168  0.054  0.000  0.429  0.000  0.000  0.000  0.000  0.000  0.650
 
band     3 # energy    7.07592812 # occ.  2.00000000
 
ion      s     py     pz     px    dxy    dyz    dz2    dxz  x2-y2    tot
    1  0.000  0.301  0.027  0.038  0.000  0.000  0.000  0.000  0.000  0.366
    2  0.000  0.301  0.027  0.038  0.000  0.000  0.000  0.000  0.000  0.366
tot    0.000  0.602  0.054  0.075  0.000  0.000  0.000  0.000  0.000  0.732
 
band     4 # energy    7.07592939 # occ.  2.00000000
 
ion      s     py     pz     px    dxy    dyz    dz2    dxz  x2-y2    tot
    1  0.000  0.024  0.339  0.003  0.000  0.000  0.000  0.000  0.000  0.366
    2  0.000  0.024  0.339  0.003  0.000  0.000  0.000  0.000  0.000  0.366
tot    0.000  0.048  0.678  0.006  0.000  0.000  0.000  0.000  0.000  0.732
 
band     5 # energy   17.29734856 # occ.  0.00000000
 
ion      s     py     pz     px    dxy    dyz    dz2    dxz  x2-y2    tot
    1  0.000  0.000  0.306  0.000  0.000  0.000  0.000  0.000  0.000  0.306
    2  0.000  0.000  0.306  0.000  0.000  0.000  0.000  0.000  0.000  0.306
tot    0.000  0.000  0.612  0.000  0.000  0.000  0.000  0.000  0.000  0.612
 
band     6 # energy   17.29734997 # occ.  0.00000000
 
ion      s     py     pz     px    dxy    dyz    dz2    dxz  x2-y2    tot
    1  0.000  0.272  0.000  0.034  0.000  0.000  0.000  0.000  0.000  0.306
    2  0.000  0.272  0.000  0.034  0.000  0.000  0.000  0.000  0.000  0.306
tot    0.000  0.544  0.000  0.068  0.000  0.000  0.000  0.000  0.000  0.612
 
band     7 # energy   17.67052916 # occ.  0.00000000
 
ion      s     py     pz     px    dxy    dyz    dz2    dxz  x2-y2    tot
    1  0.170  0.016  0.000  0.129  0.000  0.000  0.000  0.000  0.000  0.315
    2  0.170  0.016  0.000  0.129  0.000  0.000  0.000  0.000  0.000  0.315
tot    0.340  0.032  0.000  0.258  0.000  0.000  0.000  0.000  0.000  0.630
 
band     8 # energy   24.38180579 # occ.  0.00000000
 
ion      s     py     pz     px    dxy    dyz    dz2    dxz  x2-y2    tot
    1  0.164  0.023  0.000  0.186  0.000  0.000  0.000  0.000  0.000  0.373
    2  0.164  0.023  0.000  0.186  0.000  0.000  0.000  0.000  0.000  0.373
tot    0.328  0.047  0.000  0.373  0.000  0.000  0.000  0.000  0.000  0.747
 

 k-point     6 :    0.33333333-0.00000000 0.00000000     weight = 0.00237037

band     1 # energy   -9.20136154 # occ.  2.00000000
 
ion      s     py     pz     px    dxy    dyz    dz2    dxz  x2-y2    tot
    1  0.266  0.004  0.000  0.032  0.000  0.000  0.000  0.000  0.000  0.302
    2  0.266  0.004  0.000  0.032  0.000  0.000  0.000  0.000  0.000  0.302
tot    0.531  0.008  0.000  0.064  0.000  0.000  0.000  0.000  0.000  0.604
 
band     2 # energy   -0.14781692 # occ.  2.00000000
 
ion      s     py     pz     px    dxy    dyz    dz2    dxz  x2-y2    tot
    1  0.104  0.023  0.000  0.187  0.000  0.000  0.000  0.000  0.000  0.314
    2  0.104  0.023  0.000  0.187  0.000  0.000  0.000  0.000  0.000  0.314
tot    0.207  0.047  0.000  0.374  0.000  0.000  0.000  0.000  0.000  0.628
 
band     3 # energy    6.63707735 # occ.  2.00000000
 
ion      s     py     pz     px    dxy    dyz    dz2    dxz  x2-y2    tot
    1  0.000  0.308  0.019  0.038  0.000  0.000  0.000  0.000  0.000  0.366
    2  0.000  0.308  0.019  0.038  0.000  0.000  0.000  0.000  0.000  0.366
tot    0.000  0.615  0.039  0.077  0.000  0.000  0.000  0.000  0.000  0.731
 
band     4 # energy    6.63707874 # occ.  2.00000000
 
ion      s     py     pz     px    dxy    dyz    dz2    dxz  x2-y2    tot
    1  0.000  0.017  0.346  0.002  0.000  0.000  0.000  0.000  0.000  0.366
    2  0.000  0.017  0.346  0.002  0.000  0.000  0.000  0.000  0.000  0.366
tot    0.000  0.034  0.692  0.004  0.000  0.000  0.000  0.000  0.000  0.731
 
band     5 # energy   17.70501749 # occ.  0.00000000
 
ion      s     py     pz     px    dxy    dyz    dz2    dxz  x2-y2    tot
    1  0.000  0.001  0.292  0.000  0.000  0.000  0.000  0.000  0.000  0.294
    2  0.000  0.001  0.292  0.000  0.000  0.000  0.000  0.000  0.000  0.294
tot    0.000  0.002  0.585  0.000  0.000  0.000  0.000  0.000  0.000  0.587
 
band     6 # energy   17.70501861 # occ.  0.00000000
 
ion      s     py     pz     px    dxy    dyz    dz2    dxz  x2-y2    tot
    1  0.000  0.260  0.001  0.032  0.000  0.000  0.000  0.000  0.000  0.294
    2  0.000  0.260  0.001  0.032  0.000  0.000  0.000  0.000  0.000  0.294
tot    0.000  0.520  0.002  0.065  0.000  0.000  0.000  0.000  0.000  0.587
 
band     7 # energy   18.01522049 # occ.  0.00000000
 
ion      s     py     pz     px    dxy    dyz    dz2    dxz  x2-y2    tot
    1  0.229  0.010  0.000  0.077  0.000  0.000  0.000  0.000  0.000  0.316
    2  0.229  0.010  0.000  0.077  0.000  0.000  0.000  0.000  0.000  0.316
tot    0.458  0.019  0.000  0.154  0.000  0.000  0.000  0.000  0.000  0.632
 
band     8 # energy   24.99397990 # occ.  0.00000000
 
ion      s     py     pz     px    dxy    dyz    dz2    dxz  x2-y2    tot
    1  0.084  0.029  0.000  0.233  0.000  0.000  0.000  0.000  0.000  0.346
    2  0.084  0.029  0.000  0.233  0.000  0.000  0.000  0.000  0.000  0.346
tot    0.168  0.058  0.000  0.466  0.000  0.000  0.000  0.000  0.000  0.693
 

 k-point     7 :    0.40000000-0.00000000 0.00000000     weight = 0.00237037

band     1 # energy   -7.99523152 # occ.  2.00000000
 
ion      s     py     pz     px    dxy    dyz    dz2    dxz  x2-y2    tot
    1  0.266  0.005  0.000  0.040  0.000  0.000  0.000  0.000  0.000  0.311
    2  0.266  0.005  0.000  0.040  0.000  0.000  0.000  0.000  0.000  0.311
tot    0.531  0.010  0.000  0.080  0.000  0.000  0.000  0.000  0.000  0.621
 
band     2 # energy   -2.12197849 # occ.  2.00000000
 
ion      s     py     pz     px    dxy    dyz    dz2    dxz  x2-y2    tot
    1  0.113  0.021  0.000  0.168  0.000  0.000  0.000  0.000  0.000  0.302
    2  0.113  0.021  0.000  0.168  0.000  0.000  0.000  0.000  0.000  0.302
tot    0.226  0.042  0.000  0.337  0.000  0.000  0.000  0.000  0.000  0.604
 
band     3 # energy    6.33274447 # occ.  2.00000000
 
ion      s     py     pz     px    dxy    dyz    dz2    dxz  x2-y2    tot
    1  0.000  0.312  0.015  0.039  0.000  0.000  0.000  0.000  0.000  0.366
    2  0.000  0.312  0.015  0.039  0.000  0.000  0.000  0.000  0.000  0.366
tot    0.000  0.623  0.030  0.078  0.000  0.000  0.000  0.000  0.000  0.731
 
band     4 # energy    6.33274597 # occ.  2.00000000
 
ion      s     py     pz     px    dxy    dyz    dz2    dxz  x2-y2    tot
    1  0.000  0.013  0.351  0.002  0.000  0.000  0.000  0.000  0.000  0.366
    2  0.000  0.013  0.351  0.002  0.000  0.000  0.000  0.000  0.000  0.366
tot    0.000  0.027  0.701  0.003  0.000  0.000  0.000  0.000  0.000  0.731
 
band     5 # energy   17.89811391 # occ.  0.00000000
 
ion      s     py     pz     px    dxy    dyz    dz2    dxz  x2-y2    tot
    1  0.000  0.006  0.273  0.001  0.000  0.000  0.000  0.000  0.000  0.280
    2  0.000  0.006  0.273  0.001  0.000  0.000  0.000  0.000  0.000  0.280
tot    0.000  0.012  0.547  0.001  0.000  0.000  0.000  0.000  0.000  0.560
 
band     6 # energy   17.89811480 # occ.  0.00000000
 
ion      s     py     pz     px    dxy    dyz    dz2    dxz  x2-y2    tot
    1  0.000  0.243  0.007  0.030  0.000  0.000  0.000  0.000  0.000  0.280
    2  0.000  0.243  0.007  0.030  0.000  0.000  0.000  0.000  0.000  0.280
tot    0.000  0.486  0.013  0.061  0.000  0.000  0.000  0.000  0.000  0.560
 
band     7 # energy   18.21355656 # occ.  0.00000000
 
ion      s     py     pz     px    dxy    dyz    dz2    dxz  x2-y2    tot
    1  0.270  0.005  0.000  0.042  0.000  0.000  0.000  0.000  0.000  0.317
    2  0.270  0.005  0.000  0.042  0.000  0.000  0.000  0.000  0.000  0.317
tot    0.540  0.010  0.000  0.083  0.000  0.000  0.000  0.000  0.000  0.633
 
band     8 # energy   25.44661737 # occ.  0.00000000
 
ion      s     py     pz     px    dxy    dyz    dz2    dxz  x2-y2    tot
    1  0.031  0.032  0.000  0.253  0.000  0.000  0.000  0.000  0.000  0.316
    2  0.031  0.032  0.000  0.253  0.000  0.000  0.000  0.000  0.000  0.316
tot    0.061  0.063  0.000  0.507  0.000  0.000  0.000  0.000  0.000  0.631
 

 k-point     8 :    0.46666667-0.00000000 0.00000000     weight = 0.00237037

band     1 # energy   -6.84937114 # occ.  2.00000000
 
ion      s     py     pz     px    dxy    dyz    dz2    dxz  x2-y2    tot
    1  0.287  0.004  0.000  0.035  0.000  0.000  0.000  0.000  0.000  0.326
    2  0.287  0.004  0.000  0.035  0.000  0.000  0.000  0.000  0.000  0.326
tot    0.574  0.009  0.000  0.069  0.000  0.000  0.000  0.000  0.000  0.651
 
band     2 # energy   -3.65962136 # occ.  2.00000000
 
ion      s     py     pz     px    dxy    dyz    dz2    dxz  x2-y2    tot
    1  0.096  0.021  0.000  0.168  0.000  0.000  0.000  0.000  0.000  0.286
    2  0.096  0.021  0.000  0.168  0.000  0.000  0.000  0.000  0.000  0.286
tot    0.193  0.042  0.000  0.336  0.000  0.000  0.000  0.000  0.000  0.571
 
band     3 # energy    6.17776540 # occ.  2.00000000
 
ion      s     py     pz     px    dxy    dyz    dz2    dxz  x2-y2    tot
    1  0.000  0.314  0.013  0.039  0.000  0.000  0.000  0.000  0.000  0.366
    2  0.000  0.314  0.013  0.039  0.000  0.000  0.000  0.000  0.000  0.366
tot    0.000  0.628  0.026  0.078  0.000  0.000  0.000  0.000  0.000  0.732
 
band     4 # energy    6.17776696 # occ.  2.00000000
 
ion      s     py     pz     px    dxy    dyz    dz2    dxz  x2-y2    tot
    1  0.000  0.011  0.353  0.001  0.000  0.000  0.000  0.000  0.000  0.366
    2  0.000  0.011  0.353  0.001  0.000  0.000  0.000  0.000  0.000  0.366
tot    0.000  0.023  0.706  0.003  0.000  0.000  0.000  0.000  0.000  0.732
 
band     5 # energy   17.96208216 # occ.  0.00000000
 
ion      s     py     pz     px    dxy    dyz    dz2    dxz  x2-y2    tot
    1  0.000  0.012  0.259  0.001  0.000  0.000  0.000  0.000  0.000  0.272
    2  0.000  0.012  0.259  0.001  0.000  0.000  0.000  0.000  0.000  0.272
tot    0.000  0.023  0.518  0.003  0.000  0.000  0.000  0.000  0.000  0.544
 
band     6 # energy   17.96208296 # occ.  0.00000000
 
ion      s     py     pz     px    dxy    dyz    dz2    dxz  x2-y2    tot
    1  0.000  0.230  0.013  0.029  0.000  0.000  0.000  0.000  0.000  0.272
    2  0.000  0.230  0.013  0.029  0.000  0.000  0.000  0.000  0.000  0.272
tot    0.000  0.460  0.026  0.058  0.000  0.000  0.000  0.000  0.000  0.544
 
band     7 # energy   18.30419217 # occ.  0.00000000
 
ion      s     py     pz     px    dxy    dyz    dz2    dxz  x2-y2    tot
    1  0.290  0.003  0.000  0.024  0.000  0.000  0.000  0.000  0.000  0.317
    2  0.290  0.003  0.000  0.024  0.000  0.000  0.000  0.000  0.000  0.317
tot    0.580  0.006  0.000  0.048  0.000  0.000  0.000  0.000  0.000  0.634
 
band     8 # energy   25.67653485 # occ.  0.00000000
 
ion      s     py     pz     px    dxy    dyz    dz2    dxz  x2-y2    tot
    1  0.007  0.032  0.000  0.256  0.000  0.000  0.000  0.000  0.000  0.295
    2  0.007  0.032  0.000  0.256  0.000  0.000  0.000  0.000  0.000  0.295
tot    0.013  0.064  0.000  0.512  0.000  0.000  0.000  0.000  0.000  0.590
 

 k-point     9 :    0.06666667 0.06666667 0.00000000     weight = 0.00177778

band     1 # energy  -11.99447355 # occ.  2.00000000
 
ion      s     py     pz     px    dxy    dyz    dz2    dxz  x2-y2    tot
    1  0.286  0.001  0.000  0.001  0.000  0.000  0.000  0.000  0.000  0.288
    2  0.286  0.001  0.000  0.001  0.000  0.000  0.000  0.000  0.000  0.288
tot    0.572  0.001  0.000  0.003  0.000  0.000  0.000  0.000  0.000  0.576
 
band     2 # energy    8.30687675 # occ.  2.00000000
 
ion      s     py     pz     px    dxy    dyz    dz2    dxz  x2-y2    tot
    1  0.000  0.000  0.369  0.000  0.000  0.000  0.000  0.000  0.000  0.369
    2  0.000  0.000  0.369  0.000  0.000  0.000  0.000  0.000  0.000  0.369
tot    0.000  0.000  0.737  0.000  0.000  0.000  0.000  0.000  0.000  0.737
 
band     3 # energy    8.30687758 # occ.  2.00000000
 
ion      s     py     pz     px    dxy    dyz    dz2    dxz  x2-y2    tot
    1  0.000  0.246  0.000  0.123  0.000  0.000  0.000  0.000  0.000  0.369
    2  0.000  0.246  0.000  0.123  0.000  0.000  0.000  0.000  0.000  0.369
tot    0.000  0.492  0.000  0.246  0.000  0.000  0.000  0.000  0.000  0.737
 
band     4 # energy    8.48199607 # occ.  2.00000000
 
ion      s     py     pz     px    dxy    dyz    dz2    dxz  x2-y2    tot
    1  0.016  0.121  0.000  0.241  0.000  0.000  0.000  0.000  0.000  0.378
    2  0.016  0.121  0.000  0.241  0.000  0.000  0.000  0.000  0.000  0.378
tot    0.032  0.241  0.000  0.482  0.000  0.000  0.000  0.000  0.000  0.755
 
band     5 # energy   14.87036209 # occ.  0.00000000
 
ion      s     py     pz     px    dxy    dyz    dz2    dxz  x2-y2    tot
    1  0.008  0.096  0.000  0.192  0.000  0.000  0.000  0.000  0.000  0.296
    2  0.008  0.096  0.000  0.192  0.000  0.000  0.000  0.000  0.000  0.296
tot    0.016  0.192  0.000  0.384  0.000  0.000  0.000  0.000  0.000  0.592
 
band     6 # energy   15.68647887 # occ.  0.00000000
 
ion      s     py     pz     px    dxy    dyz    dz2    dxz  x2-y2    tot
    1  0.000  0.208  0.000  0.104  0.000  0.000  0.000  0.000  0.000  0.312
    2  0.000  0.208  0.000  0.104  0.000  0.000  0.000  0.000  0.000  0.312
tot    0.000  0.416  0.000  0.208  0.000  0.000  0.000  0.000  0.000  0.623
 
band     7 # energy   15.68647965 # occ.  0.00000000
 
ion      s     py     pz     px    dxy    dyz    dz2    dxz  x2-y2    tot
    1  0.000  0.000  0.312  0.000  0.000  0.000  0.000  0.000  0.000  0.312
    2  0.000  0.000  0.312  0.000  0.000  0.000  0.000  0.000  0.000  0.312
tot    0.000  0.000  0.623  0.000  0.000  0.000  0.000  0.000  0.000  0.623
 
band     8 # energy   22.89999627 # occ.  0.00000000
 
ion      s     py     pz     px    dxy    dyz    dz2    dxz  x2-y2    tot
    1  0.385  0.007  0.000  0.013  0.000  0.000  0.000  0.000  0.000  0.405
    2  0.385  0.007  0.000  0.013  0.000  0.000  0.000  0.000  0.000  0.405
tot    0.769  0.013  0.000  0.027  0.000  0.000  0.000  0.000  0.000  0.809
 

 k-point    10 :    0.13333333 0.06666667 0.00000000     weight = 0.00711111

band     1 # energy  -11.71262294 # occ.  2.00000000
 
ion      s     py     pz     px    dxy    dyz    dz2    dxz  x2-y2    tot
    1  0.283  0.000  0.000  0.006  0.000  0.000  0.000  0.000  0.000  0.289
    2  0.283  0.000  0.000  0.006  0.000  0.000  0.000  0.000  0.000  0.289
tot    0.566  0.000  0.000  0.012  0.000  0.000  0.000  0.000  0.000  0.578
 
band     2 # energy    6.93470081 # occ.  2.00000000
 
ion      s     py     pz     px    dxy    dyz    dz2    dxz  x2-y2    tot
    1  0.026  0.046  0.000  0.285  0.000  0.000  0.000  0.000  0.000  0.358
    2  0.026  0.046  0.000  0.285  0.000  0.000  0.000  0.000  0.000  0.358
tot    0.052  0.092  0.000  0.571  0.000  0.000  0.000  0.000  0.000  0.715
 
band     3 # energy    7.73132502 # occ.  2.00000000
 
ion      s     py     pz     px    dxy    dyz    dz2    dxz  x2-y2    tot
    1  0.000  0.000  0.362  0.000  0.000  0.000  0.000  0.000  0.000  0.362
    2  0.000  0.000  0.362  0.000  0.000  0.000  0.000  0.000  0.000  0.362
tot    0.000  0.000  0.725  0.000  0.000  0.000  0.000  0.000  0.000  0.725
 
band     4 # energy    8.28134675 # occ.  2.00000000
 
ion      s     py     pz     px    dxy    dyz    dz2    dxz  x2-y2    tot
    1  0.011  0.315  0.000  0.049  0.000  0.000  0.000  0.000  0.000  0.375
    2  0.011  0.315  0.000  0.049  0.000  0.000  0.000  0.000  0.000  0.375
tot    0.022  0.631  0.000  0.098  0.000  0.000  0.000  0.000  0.000  0.751
 
band     5 # energy   15.06528120 # occ.  0.00000000
 
ion      s     py     pz     px    dxy    dyz    dz2    dxz  x2-y2    tot
    1  0.013  0.161  0.000  0.120  0.000  0.000  0.000  0.000  0.000  0.295
    2  0.013  0.161  0.000  0.120  0.000  0.000  0.000  0.000  0.000  0.295
tot    0.026  0.323  0.000  0.241  0.000  0.000  0.000  0.000  0.000  0.590
 
band     6 # energy   16.45656316 # occ.  0.00000000
 
ion      s     py     pz     px    dxy    dyz    dz2    dxz  x2-y2    tot
    1  0.000  0.000  0.319  0.000  0.000  0.000  0.000  0.000  0.000  0.319
    2  0.000  0.000  0.319  0.000  0.000  0.000  0.000  0.000  0.000  0.319
tot    0.000  0.000  0.639  0.000  0.000  0.000  0.000  0.000  0.000  0.639
 
band     7 # energy   16.51292921 # occ.  0.00000000
 
ion      s     py     pz     px    dxy    dyz    dz2    dxz  x2-y2    tot
    1  0.015  0.156  0.000  0.148  0.000  0.000  0.000  0.000  0.000  0.319
    2  0.015  0.156  0.000  0.148  0.000  0.000  0.000  0.000  0.000  0.319
tot    0.029  0.312  0.000  0.297  0.000  0.000  0.000  0.000  0.000  0.638
 
band     8 # energy   23.05013307 # occ.  0.00000000
 
ion      s     py     pz     px    dxy    dyz    dz2    dxz  x2-y2    tot
    1  0.343  0.001  0.000  0.052  0.000  0.000  0.000  0.000  0.000  0.395
    2  0.343  0.001  0.000  0.052  0.000  0.000  0.000  0.000  0.000  0.395
tot    0.685  0.002  0.000  0.103  0.000  0.000  0.000  0.000  0.000  0.791
 

 k-point    11 :    0.20000000 0.06666667 0.00000000     weight = 0.00711111

band     1 # energy  -11.19190987 # occ.  2.00000000
 
ion      s     py     pz     px    dxy    dyz    dz2    dxz  x2-y2    tot
    1  0.279  0.000  0.000  0.013  0.000  0.000  0.000  0.000  0.000  0.292
    2  0.279  0.000  0.000  0.013  0.000  0.000  0.000  0.000  0.000  0.292