<?xml version="1.0" encoding="ISO-8859-1"?>
<modeling>
 <generator>
  <i name="program" type="string">vasp </i>
  <i name="version" type="string">5.4.4.18Apr17-6-g9f103f2a35  </i>
  <i name="subversion" type="string">(build Jan 25 2021 16:16:55) complex            parallel </i>
  <i name="platform" type="string">LinuxIFC </i>
  <i name="date" type="string">2026 04 30 </i>
  <i name="time" type="string">12:29:56 </i>
 </generator>
 <incar>
  <i type="string" name="SYSTEM"> r-GeO2 ENCUT convergence test</i>
  <i type="int" name="ISTART">     0</i>
  <i type="string" name="PREC">accurate</i>
  <i type="string" name="ALGO"> Normal</i>
  <i type="int" name="ICHARG">     2</i>
  <i type="int" name="IBRION">    -1</i>
  <i name="EDIFF">      0.00010000</i>
  <i type="int" name="NSW">     0</i>
  <i name="ENCUT">    500.00000000</i>
  <i type="logical" name="LREAL"> F  </i>
  <i type="int" name="ISMEAR">     0</i>
  <i name="SIGMA">      0.05000000</i>
  <i type="logical" name="LWAVE"> F  </i>
  <i type="logical" name="LCHARG"> F  </i>
  <i type="int" name="LORBIT">    11</i>
  <i type="logical" name="LASPH"> T  </i>
  <v type="int" name="KPOINT_BSE">    -1     0     0     0</v>
  <i type="logical" name="LASPH"> T  </i>
 </incar>
 <structure name="primitive_cell" >
  <crystal>
   <varray name="basis" >
    <v>       2.18050236       0.00000000       1.25891346 </v>
    <v>       0.72683412       2.05579703       1.25891346 </v>
    <v>       0.00000000       0.00000000       2.51782692 </v>
   </varray>
   <i name="volume">     11.28658789 </i>
   <varray name="rec_basis" >
    <v>       0.45860991      -0.16214311       0.00000000 </v>
    <v>       0.00000000       0.48642934       0.00000000 </v>
    <v>      -0.22930496      -0.16214311       0.39716789 </v>
   </varray>
  </crystal>
  <varray name="positions" >
   <v>      -0.12500000      -0.12500000      -0.12500000 </v>
   <v>       0.12500000       0.12500000       0.12500000 </v>
  </varray>
 </structure>
 <varray name="primitive_index" >
  <v type="int" >        1 </v>
  <v type="int" >        2 </v>
 </varray>
 <kpoints>
  <generation param="Gamma">
   <v type="int" name="divisions">      15       15       15 </v>
   <v name="usershift">      0.00000000       0.00000000       0.00000000 </v>
   <v name="genvec1">      0.06666667      -0.00000000       0.00000000 </v>
   <v name="genvec2">      0.00000000       0.06666667       0.00000000 </v>
   <v name="genvec3">      0.00000000       0.00000000       0.06666667 </v>
   <v name="shift">      0.00000000       0.00000000       0.00000000 </v>
  </generation>
  <varray name="kpointlist" >
   <v>       0.00000000       0.00000000       0.00000000 </v>
   <v>       0.06666667      -0.00000000       0.00000000 </v>
   <v>       0.13333333      -0.00000000       0.00000000 </v>
   <v>       0.20000000      -0.00000000       0.00000000 </v>
   <v>       0.26666667       0.00000000       0.00000000 </v>
   <v>       0.33333333      -0.00000000       0.00000000 </v>
   <v>       0.40000000      -0.00000000       0.00000000 </v>
   <v>       0.46666667      -0.00000000       0.00000000 </v>
   <v>       0.06666667       0.06666667       0.00000000 </v>
   <v>       0.13333333       0.06666667       0.00000000 </v>
   <v>       0.20000000       0.06666667       0.00000000 </v>
   <v>       0.26666667       0.06666667       0.00000000 </v>
   <v>       0.33333333       0.06666667       0.00000000 </v>
   <v>       0.40000000       0.06666667       0.00000000 </v>
   <v>       0.46666667       0.06666667       0.00000000 </v>
   <v>      -0.46666667       0.06666667       0.00000000 </v>
   <v>      -0.40000000       0.06666667       0.00000000 </v>
   <v>      -0.33333333       0.06666667       0.00000000 </v>
   <v>      -0.26666667       0.06666667       0.00000000 </v>
   <v>      -0.20000000       0.06666667       0.00000000 </v>
   <v>      -0.13333333       0.06666667       0.00000000 </v>
   <v>      -0.06666667       0.06666667       0.00000000 </v>
   <v>       0.13333333       0.13333333       0.00000000 </v>
   <v>       0.20000000       0.13333333       0.00000000 </v>
   <v>       0.26666667       0.13333333       0.00000000 </v>
   <v>       0.33333333       0.13333333       0.00000000 </v>
   <v>       0.40000000       0.13333333       0.00000000 </v>
   <v>       0.46666667       0.13333333       0.00000000 </v>
   <v>      -0.46666667       0.13333333       0.00000000 </v>
   <v>      -0.40000000       0.13333333       0.00000000 </v>
   <v>      -0.33333333       0.13333333       0.00000000 </v>
   <v>      -0.26666667       0.13333333       0.00000000 </v>
   <v>      -0.20000000       0.13333333       0.00000000 </v>
   <v>      -0.13333333       0.13333333       0.00000000 </v>
   <v>       0.20000000       0.20000000       0.00000000 </v>
   <v>       0.26666667       0.20000000       0.00000000 </v>
   <v>       0.33333333       0.20000000       0.00000000 </v>
   <v>       0.40000000       0.20000000       0.00000000 </v>
   <v>       0.46666667       0.20000000       0.00000000 </v>
   <v>      -0.46666667       0.20000000       0.00000000 </v>
   <v>      -0.40000000       0.20000000       0.00000000 </v>
   <v>      -0.33333333       0.20000000       0.00000000 </v>
   <v>      -0.26666667       0.20000000       0.00000000 </v>
   <v>      -0.20000000       0.20000000       0.00000000 </v>
   <v>       0.26666667       0.26666667       0.00000000 </v>
   <v>       0.33333333       0.26666667       0.00000000 </v>
   <v>       0.40000000       0.26666667       0.00000000 </v>
   <v>       0.46666667       0.26666667       0.00000000 </v>
   <v>      -0.46666667       0.26666667       0.00000000 </v>
   <v>      -0.40000000       0.26666667       0.00000000 </v>
   <v>      -0.33333333       0.26666667       0.00000000 </v>
   <v>      -0.26666667       0.26666667       0.00000000 </v>
   <v>       0.33333333       0.33333333       0.00000000 </v>
   <v>       0.40000000       0.33333333       0.00000000 </v>
   <v>       0.46666667       0.33333333       0.00000000 </v>
   <v>      -0.46666667       0.33333333       0.00000000 </v>
   <v>      -0.40000000       0.33333333       0.00000000 </v>
   <v>      -0.33333333       0.33333333       0.00000000 </v>
   <v>       0.40000000       0.40000000       0.00000000 </v>
   <v>       0.46666667       0.40000000       0.00000000 </v>
   <v>      -0.46666667       0.40000000       0.00000000 </v>
   <v>      -0.40000000       0.40000000       0.00000000 </v>
   <v>       0.46666667       0.46666667       0.00000000 </v>
   <v>      -0.46666667       0.46666667       0.00000000 </v>
   <v>       0.20000000       0.13333333       0.06666667 </v>
   <v>       0.26666667       0.13333333       0.06666667 </v>
   <v>       0.33333333       0.13333333       0.06666667 </v>
   <v>       0.40000000       0.13333333       0.06666667 </v>
   <v>       0.46666667       0.13333333       0.06666667 </v>
   <v>      -0.46666667       0.13333333       0.06666667 </v>
   <v>       0.26666667       0.20000000       0.06666667 </v>
   <v>       0.33333333       0.20000000       0.06666667 </v>
   <v>       0.40000000       0.20000000       0.06666667 </v>
   <v>       0.46666667       0.20000000       0.06666667 </v>
   <v>      -0.46666667       0.20000000       0.06666667 </v>
   <v>      -0.40000000       0.20000000       0.06666667 </v>
   <v>      -0.33333333       0.20000000       0.06666667 </v>
   <v>      -0.26666667       0.20000000       0.06666667 </v>
   <v>      -0.20000000       0.20000000       0.06666667 </v>
   <v>      -0.13333333       0.20000000       0.06666667 </v>
   <v>       0.33333333       0.26666667       0.06666667 </v>
   <v>       0.40000000       0.26666667       0.06666667 </v>
   <v>       0.46666667       0.26666667       0.06666667 </v>
   <v>      -0.46666667       0.26666667       0.06666667 </v>
   <v>      -0.40000000       0.26666667       0.06666667 </v>
   <v>      -0.33333333       0.26666667       0.06666667 </v>
   <v>      -0.26666667       0.26666667       0.06666667 </v>
   <v>      -0.20000000       0.26666667       0.06666667 </v>
   <v>       0.40000000       0.33333333       0.06666667 </v>
   <v>       0.46666667       0.33333333       0.06666667 </v>
   <v>      -0.46666667       0.33333333       0.06666667 </v>
   <v>      -0.40000000       0.33333333       0.06666667 </v>
   <v>      -0.33333333       0.33333333       0.06666667 </v>
   <v>      -0.26666667       0.33333333       0.06666667 </v>
   <v>       0.46666667       0.40000000       0.06666667 </v>
   <v>      -0.46666667       0.40000000       0.06666667 </v>
   <v>      -0.40000000       0.40000000       0.06666667 </v>
   <v>      -0.33333333       0.40000000       0.06666667 </v>
   <v>      -0.46666667       0.46666667       0.06666667 </v>
   <v>      -0.40000000       0.46666667       0.06666667 </v>
   <v>       0.40000000       0.26666667       0.13333333 </v>
   <v>       0.46666667       0.26666667       0.13333333 </v>
   <v>      -0.46666667       0.26666667       0.13333333 </v>
   <v>      -0.40000000       0.26666667       0.13333333 </v>
   <v>       0.46666667       0.33333333       0.13333333 </v>
   <v>      -0.46666667       0.33333333       0.13333333 </v>
   <v>      -0.40000000       0.33333333       0.13333333 </v>
   <v>      -0.33333333       0.33333333       0.13333333 </v>
   <v>      -0.26666667       0.33333333       0.13333333 </v>
   <v>      -0.20000000       0.33333333       0.13333333 </v>
   <v>      -0.46666667       0.40000000       0.13333333 </v>
   <v>      -0.40000000       0.40000000       0.13333333 </v>
   <v>      -0.33333333       0.40000000       0.13333333 </v>
   <v>      -0.26666667       0.40000000       0.13333333 </v>
   <v>      -0.40000000       0.46666667       0.13333333 </v>
   <v>      -0.33333333       0.46666667       0.13333333 </v>
   <v>      -0.40000000       0.40000000       0.20000000 </v>
   <v>      -0.33333333       0.40000000       0.20000000 </v>
   <v>      -0.33333333       0.46666667       0.20000000 </v>
   <v>      -0.26666667       0.46666667       0.20000000 </v>
  </varray>
  <varray name="weights" >
   <v>       0.00029630 </v>
   <v>       0.00237037 </v>
   <v>       0.00237037 </v>
   <v>       0.00237037 </v>
   <v>       0.00237037 </v>
   <v>       0.00237037 </v>
   <v>       0.00237037 </v>
   <v>       0.00237037 </v>
   <v>       0.00177778 </v>
   <v>       0.00711111 </v>
   <v>       0.00711111 </v>
   <v>       0.00711111 </v>
   <v>       0.00711111 </v>
   <v>       0.00711111 </v>
   <v>       0.00711111 </v>
   <v>       0.00711111 </v>
   <v>       0.00711111 </v>
   <v>       0.00711111 </v>
   <v>       0.00711111 </v>
   <v>       0.00711111 </v>
   <v>       0.00711111 </v>
   <v>       0.00355556 </v>
   <v>       0.00177778 </v>
   <v>       0.00711111 </v>
   <v>       0.00711111 </v>
   <v>       0.00711111 </v>
   <v>       0.00711111 </v>
   <v>       0.00711111 </v>
   <v>       0.00711111 </v>
   <v>       0.00711111 </v>
   <v>       0.00711111 </v>
   <v>       0.00711111 </v>
   <v>       0.00711111 </v>
   <v>       0.00355556 </v>
   <v>       0.00177778 </v>
   <v>       0.00711111 </v>
   <v>       0.00711111 </v>
   <v>       0.00711111 </v>
   <v>       0.00711111 </v>
   <v>       0.00711111 </v>
   <v>       0.00711111 </v>
   <v>       0.00711111 </v>
   <v>       0.00711111 </v>
   <v>       0.00355556 </v>
   <v>       0.00177778 </v>
   <v>       0.00711111 </v>
   <v>       0.00711111 </v>
   <v>       0.00711111 </v>
   <v>       0.00711111 </v>
   <v>       0.00711111 </v>
   <v>       0.00711111 </v>
   <v>       0.00355556 </v>
   <v>       0.00177778 </v>
   <v>       0.00711111 </v>
   <v>       0.00711111 </v>
   <v>       0.00711111 </v>
   <v>       0.00711111 </v>
   <v>       0.00355556 </v>
   <v>       0.00177778 </v>
   <v>       0.00711111 </v>
   <v>       0.00711111 </v>
   <v>       0.00355556 </v>
   <v>       0.00177778 </v>
   <v>       0.00355556 </v>
   <v>       0.00711111 </v>
   <v>       0.01422222 </v>
   <v>       0.01422222 </v>
   <v>       0.01422222 </v>
   <v>       0.01422222 </v>
   <v>       0.01422222 </v>
   <v>       0.00711111 </v>
   <v>       0.01422222 </v>
   <v>       0.01422222 </v>
   <v>       0.01422222 </v>
   <v>       0.01422222 </v>
   <v>       0.01422222 </v>
   <v>       0.01422222 </v>
   <v>       0.01422222 </v>
   <v>       0.01422222 </v>
   <v>       0.00711111 </v>
   <v>       0.00711111 </v>
   <v>       0.01422222 </v>
   <v>       0.01422222 </v>
   <v>       0.01422222 </v>
   <v>       0.01422222 </v>
   <v>       0.01422222 </v>
   <v>       0.01422222 </v>
   <v>       0.00711111 </v>
   <v>       0.00711111 </v>
   <v>       0.01422222 </v>
   <v>       0.01422222 </v>
   <v>       0.01422222 </v>
   <v>       0.01422222 </v>
   <v>       0.00711111 </v>
   <v>       0.00711111 </v>
   <v>       0.01422222 </v>
   <v>       0.01422222 </v>
   <v>       0.00711111 </v>
   <v>       0.00711111 </v>
   <v>       0.00711111 </v>
   <v>       0.00711111 </v>
   <v>       0.01422222 </v>
   <v>       0.01422222 </v>
   <v>       0.01422222 </v>
   <v>       0.00711111 </v>
   <v>       0.01422222 </v>
   <v>       0.01422222 </v>
   <v>       0.01422222 </v>
   <v>       0.01422222 </v>
   <v>       0.00711111 </v>
   <v>       0.00711111 </v>
   <v>       0.01422222 </v>
   <v>       0.01422222 </v>
   <v>       0.00711111 </v>
   <v>       0.00711111 </v>
   <v>       0.00711111 </v>
   <v>       0.00711111 </v>
   <v>       0.01422222 </v>
   <v>       0.00711111 </v>
   <v>       0.00711111 </v>
  </varray>
 </kpoints>
 <parameters>
  <separator name="general" >
   <i type="string" name="SYSTEM">r-GeO2 ENCUT convergence test</i>
   <i type="logical" name="LCOMPAT"> F  </i>
  </separator>
  <separator name="electronic" >
   <i type="string" name="PREC">accura</i>
   <i name="ENMAX">    500.00000000</i>
   <i name="ENAUG">    644.87300000</i>
   <i name="EDIFF">      0.00010000</i>
   <i type="int" name="IALGO">    38</i>
   <i type="int" name="IWAVPR">    10</i>
   <i type="int" name="NBANDS">     8</i>
   <i name="NELECT">      8.00000000</i>
   <i type="int" name="TURBO">     0</i>
   <i type="int" name="IRESTART">     0</i>
   <i type="int" name="NREBOOT">     0</i>
   <i type="int" name="NMIN">     0</i>
   <i name="EREF">      0.00000000</i>
   <separator name="electronic smearing" >
    <i type="int" name="ISMEAR">     0</i>
    <i name="SIGMA">      0.05000000</i>
    <i name="KSPACING">      0.50000000</i>
    <i type="logical" name="KGAMMA"> T  </i>
   </separator>
   <separator name="electronic projectors" >
    <i type="logical" name="LREAL"> F  </i>
    <v name="ROPT">      0.00000000</v>
    <i type="int" name="LMAXPAW">  -100</i>
    <i type="int" name="LMAXMIX">     2</i>
    <i type="logical" name="NLSPLINE"> F  </i>
   </separator>
   <separator name="electronic startup" >
    <i type="int" name="ISTART">     0</i>
    <i type="int" name="ICHARG">     2</i>
    <i type="int" name="INIWAV">     1</i>
   </separator>
   <separator name="electronic spin" >
    <i type="int" name="ISPIN">     1</i>
    <i type="logical" name="LNONCOLLINEAR"> F  </i>
    <v name="MAGMOM">      1.00000000      1.00000000</v>
    <i name="NUPDOWN">     -1.00000000</i>
    <i type="logical" name="LSORBIT"> F  </i>
    <v name="SAXIS">      0.00000000      0.00000000      1.00000000</v>
    <i type="logical" name="LSPIRAL"> F  </i>
    <v name="QSPIRAL">      0.00000000      0.00000000      0.00000000</v>
    <i type="logical" name="LZEROZ"> F  </i>
   </separator>
   <separator name="electronic exchange-correlation" >
    <i type="logical" name="LASPH"> T  </i>
    <i type="logical" name="LMETAGGA"> F  </i>
   </separator>
   <separator name="electronic convergence" >
    <i type="int" name="NELM">    60</i>
    <i type="int" name="NELMDL">    -5</i>
    <i type="int" name="NELMIN">     2</i>
    <i name="ENINI">    500.00000000</i>
    <separator name="electronic convergence detail" >
     <i type="logical" name="LDIAG"> T  </i>
     <i type="logical" name="LSUBROT"> F  </i>
     <i name="WEIMIN">      0.00000000</i>
     <i name="EBREAK">      0.00000313</i>
     <i name="DEPER">      0.30000000</i>
     <i type="int" name="NRMM">     4</i>
     <i name="TIME">      0.40000000</i>
    </separator>
   </separator>
   <separator name="electronic mixer" >
    <i name="AMIX">      0.40000000</i>
    <i name="BMIX">      1.00000000</i>
    <i name="AMIN">      0.10000000</i>
    <i name="AMIX_MAG">      1.60000000</i>
    <i name="BMIX_MAG">      1.00000000</i>
    <separator name="electronic mixer details" >
     <i type="int" name="IMIX">     4</i>
     <i type="logical" name="MIXFIRST"> F  </i>
     <i type="int" name="MAXMIX">   -45</i>
     <i name="WC">    100.00000000</i>
     <i type="int" name="INIMIX">     1</i>
     <i type="int" name="MIXPRE">     1</i>
     <i type="int" name="MREMOVE">     5</i>
    </separator>
   </separator>
   <separator name="electronic dipolcorrection" >
    <i type="logical" name="LDIPOL"> F  </i>
    <i type="logical" name="LMONO"> F  </i>
    <i type="int" name="IDIPOL">     0</i>
    <i name="EPSILON">      1.00000000</i>
    <v name="DIPOL">   -100.00000000   -100.00000000   -100.00000000</v>
    <i name="EFIELD">      0.00000000</i>
   </separator>
  </separator>
  <separator name="grids" >
   <i type="int" name="NGX">    18</i>
   <i type="int" name="NGY">    18</i>
   <i type="int" name="NGZ">    18</i>
   <i type="int" name="NGXF">    36</i>
   <i type="int" name="NGYF">    36</i>
   <i type="int" name="NGZF">    36</i>
   <i type="logical" name="ADDGRID"> F  </i>
  </separator>
  <separator name="ionic" >
   <i type="int" name="NSW">     0</i>
   <i type="int" name="IBRION">    -1</i>
   <i type="int" name="MDALGO">     0</i>
   <i type="int" name="ISIF">     2</i>
   <i name="PSTRESS">      0.00000000</i>
   <i name="EDIFFG">      0.00100000</i>
   <i type="int" name="NFREE">     0</i>
   <i name="POTIM">      0.50000000</i>
   <i name="SMASS">     -3.00000000</i>
   <i name="SCALEE">      1.00000000</i>
  </separator>
  <separator name="ionic md" >
   <i name="TEBEG">      0.00010000</i>
   <i name="TEEND">      0.00010000</i>
   <i type="int" name="NBLOCK">     1</i>
   <i type="int" name="KBLOCK">     1</i>
   <i type="int" name="NPACO">   256</i>
   <i name="APACO">     16.00000000</i>
  </separator>
  <separator name="symmetry" >
   <i type="int" name="ISYM">     2</i>
   <i name="SYMPREC">      0.00001000</i>
  </separator>
  <separator name="dos" >
   <i type="int" name="LORBIT">    11</i>
   <v name="RWIGS">     -1.00000000</v>
   <i type="int" name="NEDOS">   301</i>
   <i name="EMIN">     10.00000000</i>
   <i name="EMAX">    -10.00000000</i>
   <i name="EFERMI">      0.00000000</i>
  </separator>
  <separator name="writing" >
   <i type="int" name="NWRITE">     2</i>
   <i type="logical" name="LWAVE"> F  </i>
   <i type="logical" name="LDOWNSAMPLE"> F  </i>
   <i type="logical" name="LCHARG"> F  </i>
   <i type="logical" name="LPARD"> F  </i>
   <i type="logical" name="LVTOT"> F  </i>
   <i type="logical" name="LVHAR"> F  </i>
   <i type="logical" name="LELF"> F  </i>
   <i type="logical" name="LOPTICS"> F  </i>
   <v name="STM">      0.00000000      0.00000000      0.00000000      0.00000000      0.00000000      0.00000000      0.00000000</v>
  </separator>
  <separator name="performance" >
   <i type="int" name="NPAR">     2</i>
   <i type="int" name="NSIM">     4</i>
   <i type="int" name="NBLK">    -1</i>
   <i type="logical" name="LPLANE"> T  </i>
   <i type="logical" name="LSCALAPACK"> T  </i>
   <i type="logical" name="LSCAAWARE"> F  </i>
   <i type="logical" name="LSCALU"> F  </i>
   <i type="logical" name="LASYNC"> F  </i>
   <i type="logical" name="LORBITALREAL"> F  </i>
  </separator>
  <separator name="miscellaneous" >
   <i type="int" name="IDIOT">     3</i>
   <i type="int" name="ISPECIAL">     0</i>
   <i type="logical" name="LMUSIC"> F  </i>
   <v name="POMASS">     12.01100000</v>
   <v name="DARWINR">      0.00000000</v>
   <v name="DARWINV">      1.00000000</v>
   <i type="logical" name="LCORR"> T  </i>
  </separator>
  <i type="logical" name="GGA_COMPAT"> T  </i>
  <i type="logical" name="LBERRY"> F  </i>
  <i type="int" name="ICORELEVEL">     0</i>
  <i type="logical" name="LDAU"> F  </i>
  <i type="int" name="I_CONSTRAINED_M">     0</i>
  <separator name="electronic exchange-correlation" >
   <i type="string" name="GGA">--</i>
   <i type="int" name="VOSKOWN">     0</i>
   <i type="logical" name="LHFCALC"> F  </i>
   <i type="string" name="PRECFOCK"></i>
   <i type="logical" name="LSYMGRAD"> F  </i>
   <i type="logical" name="LHFONE"> F  </i>
   <i type="logical" name="LRHFCALC"> F  </i>
   <i type="logical" name="LTHOMAS"> F  </i>
   <i type="logical" name="LMODELHF"> F  </i>
   <i name="ENCUT4O">     -1.00000000</i>
   <i type="int" name="EXXOEP">     0</i>
   <i type="int" name="FOURORBIT">     0</i>
   <i name="AEXX">      0.00000000</i>
   <i name="HFALPHA">      0.00000000</i>
   <i name="MCALPHA">      0.00000000</i>
   <i name="ALDAX">      1.00000000</i>
   <i name="AGGAX">      1.00000000</i>
   <i name="ALDAC">      1.00000000</i>
   <i name="AGGAC">      1.00000000</i>
   <i type="int" name="NKREDX">     1</i>
   <i type="int" name="NKREDY">     1</i>
   <i type="int" name="NKREDZ">     1</i>
   <i type="logical" name="SHIFTRED"> F  </i>
   <i type="logical" name="ODDONLY"> F  </i>
   <i type="logical" name="EVENONLY"> F  </i>
   <i type="int" name="LMAXFOCK">     0</i>
   <i type="int" name="NMAXFOCKAE">     0</i>
   <i type="logical" name="LFOCKAEDFT"> F  </i>
   <i name="HFSCREEN">      0.00000000</i>
   <i name="HFSCREENC">      0.00000000</i>
   <i type="int" name="NBANDSGWLOW">     0</i>
  </separator>
  <separator name="vdW DFT" >
   <i type="logical" name="LUSE_VDW"> F  </i>
   <i name="Zab_VDW">     -0.84910000</i>
   <i name="PARAM1">      0.12340000</i>
   <i name="PARAM2">      1.00000000</i>
   <i name="PARAM3">      0.00000000</i>
  </separator>
  <separator name="model GW" >
   <i type="int" name="MODEL_GW">     0</i>
   <i name="MODEL_EPS0">      3.38597637</i>
   <i name="MODEL_ALPHA">      1.00000000</i>
  </separator>
  <separator name="linear response parameters" >
   <i type="logical" name="LEPSILON"> F  </i>
   <i type="logical" name="LRPA"> F  </i>
   <i type="logical" name="LNABLA"> F  </i>
   <i type="logical" name="LVEL"> F  </i>
   <i type="int" name="KINTER">     0</i>
   <i name="CSHIFT">      0.10000000</i>
   <i name="OMEGAMAX">     -1.00000000</i>
   <i name="DEG_THRESHOLD">      0.00200000</i>
   <i name="RTIME">     -0.10000000</i>
   <i name="WPLASMAI">      0.00000000</i>
   <v name="DFIELD">      0.00000000      0.00000000      0.00000000</v>
   <v name="WPLASMA">      0.00000000      0.00000000      0.00000000      0.00000000      0.00000000      0.00000000      0.00000000      0.00000000      0.00000000</v>
  </separator>
  <separator name="orbital magnetization" >
   <i type="logical" name="NUCIND"> F  </i>
   <v name="MAGPOS">      0.00000000      0.00000000      0.00000000</v>
   <i type="logical" name="LNICSALL"> T  </i>
   <i type="logical" name="ORBITALMAG"> F  </i>
   <i type="logical" name="LMAGBLOCH"> F  </i>
   <i type="logical" name="LCHIMAG"> F  </i>
   <i type="logical" name="LGAUGE"> T  </i>
   <i type="int" name="MAGATOM">     0</i>
   <v name="MAGDIPOL">      0.00000000      0.00000000      0.00000000</v>
   <v name="AVECCONST">      0.00000000      0.00000000      0.00000000</v>
  </separator>
  <separator name="response functions" >
   <i type="logical" name="LADDER"> F  </i>
   <i type="logical" name="LRPAFORCE"> F  </i>
   <i type="logical" name="LFXC"> F  </i>
   <i type="logical" name="LHARTREE"> T  </i>
   <i type="int" name="IBSE">     0</i>
   <v type="int" name="KPOINT">    -1     0     0     0</v>
   <i type="logical" name="LTCTE"> F  </i>
   <i type="logical" name="LTETE"> F  </i>
   <i type="logical" name="LTRIPLET"> F  </i>
   <i type="logical" name="LFXCEPS"> F  </i>
   <i type="logical" name="LFXHEG"> F  </i>
   <i type="int" name="NATURALO">     2</i>
   <i type="logical" name="L2ORDER"> F  </i>
   <i type="logical" name="LMP2LT"> F  </i>
   <i type="logical" name="LUSEW"> F  </i>
   <i name="ENCUTGW">     -2.00000000</i>
   <i name="ENCUTGWSOFT">     -2.00000000</i>
   <i name="ENCUTLF">     -1.00000000</i>
   <i type="int" name="LMAXMP2">    -1</i>
   <i name="SCISSOR">      0.00000000</i>
   <i type="int" name="NOMEGA">     0</i>
   <i type="int" name="NOMEGAR">     0</i>
   <i type="int" name="NBANDSGW">    -1</i>
   <i type="int" name="NBANDSO">    -1</i>
   <i type="int" name="NBANDSV">    -1</i>
   <i type="int" name="NELM">     1</i>
   <i type="int" name="NELMHF">     1</i>
   <i type="int" name="DIM">     3</i>
   <i type="int" name="ANTIRES">     0</i>
   <i name="OMEGAMAX">    -30.00000000</i>
   <i name="OMEGAMIN">    -30.00000000</i>
   <i name="OMEGATL">   -200.00000000</i>
   <i type="int" name="OMEGAGRID">   140</i>
   <i name="CSHIFT">     -0.10000000</i>
   <i type="logical" name="SELFENERGY"> F  </i>
   <i type="logical" name="LSPECTRAL"> F  </i>
   <i type="logical" name="LSPECTRALGW"> F  </i>
   <i type="logical" name="LSINGLES"> F  </i>
   <i type="logical" name="LFERMIGW"> F  </i>
   <i type="logical" name="ODDONLYGW"> F  </i>
   <i type="logical" name="EVENONLYGW"> F  </i>
   <i type="int" name="NKREDLFX">     1</i>
   <i type="int" name="NKREDLFY">     1</i>
   <i type="int" name="NKREDLFZ">     1</i>
   <i type="int" name="MAXMEM">  2800</i>
   <i type="int" name="TELESCOPE">     0</i>
   <i type="int" name="TAUPAR">     1</i>
   <i type="int" name="OMEGAPAR">    -1</i>
   <i name="LAMBDA">      1.00000000</i>
  </separator>
  <separator name="External order field" >
   <i name="OFIELD_KAPPA">      0.00000000</i>
   <v name="OFIELD_K">      0.00000000      0.00000000      0.00000000</v>
   <i name="OFIELD_Q6_NEAR">      0.00000000</i>
   <i name="OFIELD_Q6_FAR">      0.00000000</i>
   <i name="OFIELD_A">      0.00000000</i>
  </separator>
 </parameters>
 <atominfo>
  <atoms>       2 </atoms>
  <types>       1 </types>
  <array name="atoms" >
   <dimension dim="1">ion</dimension>
   <field type="string">element</field>
   <field type="int">atomtype</field>
   <set>
    <rc><c>C </c><c>   1</c></rc>
    <rc><c>C </c><c>   1</c></rc>
   </set>
  </array>
  <array name="atomtypes" >
   <dimension dim="1">type</dimension>
   <field type="int">atomspertype</field>
   <field type="string">element</field>
   <field>mass</field>
   <field>valence</field>
   <field type="string">pseudopotential</field>
   <set>
    <rc><c>   2</c><c>C </c><c>     12.01100000</c><c>      4.00000000</c><c>  PAW_PBE C 08Apr2002                   </c></rc>
   </set>
  </array>
 </atominfo>
 <structure name="initialpos" >
  <crystal>
   <varray name="basis" >
    <v>       2.18050236       0.00000000       1.25891346 </v>
    <v>       0.72683412       2.05579703       1.25891346 </v>
    <v>       0.00000000       0.00000000       2.51782692 </v>
   </varray>
   <i name="volume">     11.28658789 </i>
   <varray name="rec_basis" >
    <v>       0.45860991      -0.16214311       0.00000000 </v>
    <v>       0.00000000       0.48642934       0.00000000 </v>
    <v>      -0.22930496      -0.16214311       0.39716789 </v>
   </varray>
  </crystal>
  <varray name="positions" >
   <v>       0.87500000       0.87500000       0.87500000 </v>
   <v>       0.12500000       0.12500000       0.12500000 </v>
  </varray>
 </structure>
 <calculation>
  <scstep>
   <time name="dav">    0.18    0.18</time>
   <time name="total">    0.21    0.21</time>
   <energy>
    <i name="alphaZ">     12.21842191 </i>
    <i name="ewald">   -348.55062700 </i>
    <i name="hartreedc">    -17.50286058 </i>
    <i name="XCdc">     27.43730065 </i>
    <i name="pawpsdc">    217.04409276 </i>
    <i name="pawaedc">   -218.18290438 </i>
    <i name="eentropy">     -0.00005044 </i>
    <i name="bandstr">      3.96203449 </i>
    <i name="atom">    294.29684335 </i>
    <i name="e_fr_energy">    -29.27774924 </i>
    <i name="e_wo_entrp">    -29.27769880 </i>
    <i name="e_0_energy">    -29.27772402 </i>
   </energy>
  </scstep>
  <scstep>
   <time name="dav">    0.26    0.26</time>
   <time name="total">    0.26    0.26</time>
   <energy>
    <i name="e_fr_energy">    -43.28250272 </i>
    <i name="e_wo_entrp">    -43.28250272 </i>
    <i name="e_0_energy">    -43.28250272 </i>
   </energy>
  </scstep>
  <scstep>
   <time name="dav">    0.17    0.17</time>
   <time name="total">    0.17    0.17</time>
   <energy>
    <i name="e_fr_energy">    -43.35925456 </i>
    <i name="e_wo_entrp">    -43.35925456 </i>
    <i name="e_0_energy">    -43.35925456 </i>
   </energy>
  </scstep>
  <scstep>
   <time name="dav">    0.22    0.22</time>
   <time name="total">    0.22    0.22</time>
   <energy>
    <i name="e_fr_energy">    -43.35938107 </i>
    <i name="e_wo_entrp">    -43.35938107 </i>
    <i name="e_0_energy">    -43.35938107 </i>
   </energy>
  </scstep>
  <scstep>
   <time name="dav">    0.16    0.16</time>
   <time name="total">    0.17    0.17</time>
   <energy>
    <i name="e_fr_energy">    -43.35938113 </i>
    <i name="e_wo_entrp">    -43.35938113 </i>
    <i name="e_0_energy">    -43.35938113 </i>
   </energy>
  </scstep>
  <scstep>
   <time name="dav">    0.17    0.17</time>
   <time name="total">    0.21    0.21</time>
   <energy>
    <i name="e_fr_energy">    -42.64121043 </i>
    <i name="e_wo_entrp">    -42.64121043 </i>
    <i name="e_0_energy">    -42.64121043 </i>
   </energy>
  </scstep>
  <scstep>
   <time name="dav">    0.19    0.19</time>
   <time name="total">    0.24    0.24</time>
   <energy>
    <i name="e_fr_energy">    -42.39524484 </i>
    <i name="e_wo_entrp">    -42.39524484 </i>
    <i name="e_0_energy">    -42.39524484 </i>
   </energy>
  </scstep>
  <scstep>
   <time name="dav">    0.17    0.17</time>
   <time name="total">    0.22    0.22</time>
   <energy>
    <i name="e_fr_energy">    -42.39812521 </i>
    <i name="e_wo_entrp">    -42.39812521 </i>
    <i name="e_0_energy">    -42.39812521 </i>
   </energy>
  </scstep>
  <scstep>
   <time name="dav">    0.22    0.22</time>
   <time name="total">    0.26    0.26</time>
   <energy>
    <i name="alphaZ">     12.21842191 </i>
    <i name="ewald">   -348.55062700 </i>
    <i name="hartreedc">    -28.78395263 </i>
    <i name="XCdc">     28.47277594 </i>
    <i name="pawpsdc">    829.63138444 </i>
    <i name="pawaedc">   -830.99540080 </i>
    <i name="eentropy">     -0.00000000 </i>
    <i name="bandstr">      1.31239686 </i>
    <i name="atom">    294.29684335 </i>
    <i name="e_fr_energy">    -42.39815792 </i>
    <i name="e_wo_entrp">    -42.39815792 </i>
    <i name="e_0_energy">    -42.39815792 </i>
   </energy>
  </scstep>
  <structure>
   <crystal>
    <varray name="basis" >
     <v>       2.18050236       0.00000000       1.25891346 </v>
     <v>       0.72683412       2.05579703       1.25891346 </v>
     <v>       0.00000000       0.00000000       2.51782692 </v>
    </varray>
    <i name="volume">     11.28658789 </i>
    <varray name="rec_basis" >
     <v>       0.45860991      -0.16214311       0.00000000 </v>
     <v>       0.00000000       0.48642934       0.00000000 </v>
     <v>      -0.22930496      -0.16214311       0.39716789 </v>
    </varray>
   </crystal>
   <varray name="positions" >
    <v>       0.87500000       0.87500000       0.87500000 </v>
    <v>       0.12500000       0.12500000       0.12500000 </v>
   </varray>
  </structure>
  <varray name="forces" >
   <v>      -0.00000000       0.00000000      -0.00000000 </v>
   <v>       0.00000000      -0.00000000       0.00000000 </v>
  </varray>
  <varray name="stress" >
   <v>   -1981.88279729       0.00000000      -0.00000000 </v>
   <v>       0.00000000   -1981.88219920      -0.00000000 </v>
   <v>      -0.00000000      -0.00000000   -1981.88227931 </v>
  </varray>
  <energy>
   <i name="e_fr_energy">    -42.39815792 </i>
   <i name="e_wo_entrp">    -42.39815792 </i>
   <i name="e_0_energy">     -0.00000000 </i>
  </energy>
  <time name="totalsc">    2.07    2.07</time>
  <eigenvalues>
   <array>
    <dimension dim="1">band</dimension>
    <dimension dim="2">kpoint</dimension>
    <dimension dim="3">spin</dimension>
    <field>eigene</field>
    <field>occ</field>
    <set>
     <set comment="spin 1">
      <set comment="kpoint 1">
       <r>  -12.1559    1.0000 </r>
       <r>    8.8746    1.0000 </r>
       <r>    8.8746    1.0000 </r>
       <r>    8.8746    1.0000 </r>
       <r>   14.9716    0.0000 </r>
       <r>   14.9716    0.0000 </r>
       <r>   14.9717    0.0000 </r>
       <r>   22.7880    0.0000 </r>
      </set>
      <set comment="kpoint 2">
       <r>  -12.0348    1.0000 </r>
       <r>    8.1086    1.0000 </r>
       <r>    8.6767    1.0000 </r>
       <r>    8.6767    1.0000 </r>
       <r>   15.2371    0.0000 </r>
       <r>   15.2371    0.0000 </r>
       <r>   15.4400    0.0000 </r>
       <r>   22.8983    0.0000 </r>
      </set>
      <set comment="kpoint 3">
       <r>  -11.6725    1.0000 </r>
       <r>    6.3476    1.0000 </r>
       <r>    8.1938    1.0000 </r>
       <r>    8.1938    1.0000 </r>
       <r>   15.8905    0.0000 </r>
       <r>   15.8905    0.0000 </r>
       <r>   16.3353    0.0000 </r>
       <r>   23.2275    0.0000 </r>
      </set>
      <set comment="kpoint 4">
       <r>  -11.0727    1.0000 </r>
       <r>    4.2168    1.0000 </r>
       <r>    7.6170    1.0000 </r>
       <r>    7.6170    1.0000 </r>
       <r>   16.6543    0.0000 </r>
       <r>   16.6543    0.0000 </r>
       <r>   17.1219    0.0000 </r>
       <r>   23.7492    0.0000 </r>
      </set>
      <set comment="kpoint 5">
       <r>  -10.2433    1.0000 </r>
       <r>    2.0034    1.0000 </r>
       <r>    7.0759    1.0000 </r>
       <r>    7.0759    1.0000 </r>
       <r>   17.2973    0.0000 </r>
       <r>   17.2973    0.0000 </r>
       <r>   17.6705    0.0000 </r>
       <r>   24.3818    0.0000 </r>
      </set>
      <set comment="kpoint 6">
       <r>   -9.2014    1.0000 </r>
       <r>   -0.1478    1.0000 </r>
       <r>    6.6371    1.0000 </r>
       <r>    6.6371    1.0000 </r>
       <r>   17.7050    0.0000 </r>
       <r>   17.7050    0.0000 </r>
       <r>   18.0152    0.0000 </r>
       <r>   24.9940    0.0000 </r>
      </set>
      <set comment="kpoint 7">
       <r>   -7.9952    1.0000 </r>
       <r>   -2.1220    1.0000 </r>
       <r>    6.3327    1.0000 </r>
       <r>    6.3327    1.0000 </r>
       <r>   17.8981    0.0000 </r>
       <r>   17.8981    0.0000 </r>
       <r>   18.2136    0.0000 </r>
       <r>   25.4466    0.0000 </r>
      </set>
      <set comment="kpoint 8">
       <r>   -6.8494    1.0000 </r>
       <r>   -3.6596    1.0000 </r>
       <r>    6.1778    1.0000 </r>
       <r>    6.1778    1.0000 </r>
       <r>   17.9621    0.0000 </r>
       <r>   17.9621    0.0000 </r>
       <r>   18.3042    0.0000 </r>
       <r>   25.6765    0.0000 </r>
      </set>
      <set comment="kpoint 9">
       <r>  -11.9945    1.0000 </r>
       <r>    8.3069    1.0000 </r>
       <r>    8.3069    1.0000 </r>
       <r>    8.4820    1.0000 </r>
       <r>   14.8704    0.0000 </r>
       <r>   15.6865    0.0000 </r>
       <r>   15.6865    0.0000 </r>
       <r>   22.9000    0.0000 </r>
      </set>
      <set comment="kpoint 10">
       <r>  -11.7126    1.0000 </r>
       <r>    6.9347    1.0000 </r>
       <r>    7.7313    1.0000 </r>
       <r>    8.2813    1.0000 </r>
       <r>   15.0653    0.0000 </r>
       <r>   16.4566    0.0000 </r>
       <r>   16.5129    0.0000 </r>
       <r>   23.0501    0.0000 </r>
      </set>
      <set comment="kpoint 11">
       <r>  -11.1919    1.0000 </r>
       <r>    4.9473    1.0000 </r>
       <r>    7.1278    1.0000 </r>
       <r>    7.8354    1.0000 </r>
       <r>   15.6832    0.0000 </r>
       <r>   17.2885    0.0000 </r>
       <r>   17.3451    0.0000 </r>
       <r>   23.3386    0.0000 </r>
      </set>
      <set comment="kpoint 12">
       <r>  -10.4387    1.0000 </r>
       <r>    2.7804    1.0000 </r>
       <r>    6.6035    1.0000 </r>
       <r>    7.2665    1.0000 </r>
       <r>   16.4146    0.0000 </r>
       <r>   17.9589    0.0000 </r>
       <r>   17.9654    0.0000 </r>
       <r>   23.7588    0.0000 </r>
      </set>
      <set comment="kpoint 13">
       <r>   -9.4662    1.0000 </r>
       <r>    0.6200    1.0000 </r>
       <r>    6.2128    1.0000 </r>
       <r>    6.7078    1.0000 </r>
       <r>   17.0183    0.0000 </r>
       <r>   18.3538    0.0000 </r>
       <r>   18.3646    0.0000 </r>
       <r>   24.3159    0.0000 </r>
      </set>
      <set comment="kpoint 14">
       <r>   -8.3073    1.0000 </r>
       <r>   -1.4127    1.0000 </r>
       <r>    5.9807    1.0000 </r>
       <r>    6.2324    1.0000 </r>
       <r>   17.4173    0.0000 </r>
       <r>   18.4901    0.0000 </r>
       <r>   18.5852    0.0000 </r>
       <r>   24.9366    0.0000 </r>
      </set>
      <set comment="kpoint 15">
       <r>   -7.0879    1.0000 </r>
       <r>   -3.1452    1.0000 </r>
       <r>    5.8800    1.0000 </r>
       <r>    5.9158    1.0000 </r>
       <r>   17.6706    0.0000 </r>
       <r>   18.4309    0.0000 </r>
       <r>   18.6996    0.0000 </r>
       <r>   25.4308    0.0000 </r>
      </set>
      <set comment="kpoint 16">
       <r>   -6.5454    1.0000 </r>
       <r>   -3.8170    1.0000 </r>
       <r>    5.6732    1.0000 </r>
       <r>    6.0167    1.0000 </r>
       <r>   17.8603    0.0000 </r>
       <r>   18.2747    0.0000 </r>
       <r>   18.7220    0.0000 </r>
       <r>   25.6068    0.0000 </r>
      </set>
      <set comment="kpoint 17">
       <r>   -7.4820    1.0000 </r>
       <r>   -2.6206    1.0000 </r>
       <r>    5.6258    1.0000 </r>
       <r>    6.2745    1.0000 </r>
       <r>   18.0110    0.0000 </r>
       <r>   18.0513    0.0000 </r>
       <r>   18.6565    0.0000 </r>
       <r>   25.4061    0.0000 </r>
      </set>
      <set comment="kpoint 18">
       <r>   -8.7108    1.0000 </r>
       <r>   -0.7538    1.0000 </r>
       <r>    5.7450    1.0000 </r>
       <r>    6.6729    1.0000 </r>
       <r>   17.7241    0.0000 </r>
       <r>   18.0716    0.0000 </r>
       <r>   18.4814    0.0000 </r>
       <r>   24.9057    0.0000 </r>
      </set>
      <set comment="kpoint 19">
       <r>   -9.8137    1.0000 </r>
       <r>    1.3355    1.0000 </r>
       <r>    6.0302    1.0000 </r>
       <r>    7.1841    1.0000 </r>
       <r>   17.2288    0.0000 </r>
       <r>   17.9507    0.0000 </r>
       <r>   18.1357    0.0000 </r>
       <r>   24.2964    0.0000 </r>
      </set>
      <set comment="kpoint 20">
       <r>  -10.7152    1.0000 </r>
       <r>    3.5124    1.0000 </r>
       <r>    6.4709    1.0000 </r>
       <r>    7.7591    1.0000 </r>
       <r>   16.5559    0.0000 </r>
       <r>   17.5090    0.0000 </r>
       <r>   17.6156    0.0000 </r>
       <r>   23.7525    0.0000 </r>
      </set>
      <set comment="kpoint 21">
       <r>  -11.3918    1.0000 </r>
       <r>    5.6364    1.0000 </r>
       <r>    7.0430    1.0000 </r>
       <r>    8.3069    1.0000 </r>
       <r>   15.8298    0.0000 </r>
       <r>   16.6976    0.0000 </r>
       <r>   16.9757    0.0000 </r>
       <r>   23.3342    0.0000 </r>
      </set>
      <set comment="kpoint 22">
       <r>  -11.8333    1.0000 </r>
       <r>    7.3767    1.0000 </r>
       <r>    7.7748    1.0000 </r>
       <r>    8.6709    1.0000 </r>
       <r>   15.3029    0.0000 </r>
       <r>   15.8498    0.0000 </r>
       <r>   16.1355    0.0000 </r>
       <r>   23.0458    0.0000 </r>
      </set>
      <set comment="kpoint 23">
       <r>  -11.5116    1.0000 </r>
       <r>    7.1032    1.0000 </r>
       <r>    7.1032    1.0000 </r>
       <r>    7.4007    1.0000 </r>
       <r>   14.6100    0.0000 </r>
       <r>   17.3238    0.0000 </r>
       <r>   17.3238    0.0000 </r>
       <r>   22.8176    0.0000 </r>
      </set>
      <set comment="kpoint 24">
       <r>  -11.0714    1.0000 </r>
       <r>    5.5558    1.0000 </r>
       <r>    6.4745    1.0000 </r>
       <r>    7.1364    1.0000 </r>
       <r>   14.7672    0.0000 </r>
       <r>   18.2345    0.0000 </r>
       <r>   18.2514    0.0000 </r>
       <r>   22.5715    0.0000 </r>
      </set>
      <set comment="kpoint 25">
       <r>  -10.3971    1.0000 </r>
       <r>    3.5645    1.0000 </r>
       <r>    5.9444    1.0000 </r>
       <r>    6.6673    1.0000 </r>
       <r>   15.3768    0.0000 </r>
       <r>   18.9514    0.0000 </r>
       <r>   19.0265    0.0000 </r>
       <r>   22.4500    0.0000 </r>
      </set>
      <set comment="kpoint 26">
       <r>   -9.4994    1.0000 </r>
       <r>    1.4803    1.0000 </r>
       <r>    5.5653    1.0000 </r>
       <r>    6.0609    1.0000 </r>
       <r>   16.0865    0.0000 </r>
       <r>   19.4236    0.0000 </r>
       <r>   19.5039    0.0000 </r>
       <r>   22.6741    0.0000 </r>
      </set>
      <set comment="kpoint 27">
       <r>   -8.4022    1.0000 </r>
       <r>   -0.5475    1.0000 </r>
       <r>    5.3621    1.0000 </r>
       <r>    5.4577    1.0000 </r>
       <r>   16.6410    0.0000 </r>
       <r>   19.6533    0.0000 </r>
       <r>   19.7035    0.0000 </r>
       <r>   23.3644    0.0000 </r>
      </set>
      <set comment="kpoint 28">
       <r>   -7.1821    1.0000 </r>
       <r>   -2.3731    1.0000 </r>
       <r>    4.9393    1.0000 </r>
       <r>    5.3428    1.0000 </r>
       <r>   17.0195    0.0000 </r>
       <r>   19.5470    0.0000 </r>
       <r>   19.8477    0.0000 </r>
       <r>   24.3470    0.0000 </r>
      </set>
      <set comment="kpoint 29">
       <r>   -6.2582    1.0000 </r>
       <r>   -3.5415    1.0000 </r>
       <r>    4.5532    1.0000 </r>
       <r>    5.5045    1.0000 </r>
       <r>   17.3272    0.0000 </r>
       <r>   19.2821    0.0000 </r>
       <r>   19.8949    0.0000 </r>
       <r>   25.1560    0.0000 </r>
      </set>
      <set comment="kpoint 30">
       <r>   -6.7976    1.0000 </r>
       <r>   -2.8722    1.0000 </r>
       <r>    4.3282    1.0000 </r>
       <r>    5.8342    1.0000 </r>
       <r>   17.6319    0.0000 </r>
       <r>   18.9116    0.0000 </r>
       <r>   19.8560    0.0000 </r>
       <r>   25.2530    0.0000 </r>
      </set>
      <set comment="kpoint 31">
       <r>   -8.0060    1.0000 </r>
       <r>   -1.1659    1.0000 </r>
       <r>    4.2828    1.0000 </r>
       <r>    6.3076    1.0000 </r>
       <r>   17.9134    0.0000 </r>
       <r>   18.4259    0.0000 </r>
       <r>   19.7033    0.0000 </r>
       <r>   24.6583    0.0000 </r>
      </set>
      <set comment="kpoint 32">
       <r>   -9.1568    1.0000 </r>
       <r>    0.8204    1.0000 </r>
       <r>    4.4297    1.0000 </r>
       <r>    6.8844    1.0000 </r>
       <r>   17.7888    0.0000 </r>
       <r>   18.0784    0.0000 </r>
       <r>   19.3389    0.0000 </r>
       <r>   23.9336    0.0000 </r>
      </set>
      <set comment="kpoint 33">
       <r>  -10.1237    1.0000 </r>
       <r>    2.8843    1.0000 </r>
       <r>    4.7892    1.0000 </r>
       <r>    7.4964    1.0000 </r>
       <r>   17.0229    0.0000 </r>
       <r>   18.0122    0.0000 </r>
       <r>   18.6385    0.0000 </r>
       <r>   23.5041    0.0000 </r>
      </set>
      <set comment="kpoint 34">
       <r>  -10.8734    1.0000 </r>
       <r>    4.6924    1.0000 </r>
       <r>    5.5421    1.0000 </r>
       <r>    8.0274    1.0000 </r>
       <r>   16.2814    0.0000 </r>
       <r>   17.6415    0.0000 </r>
       <r>   17.6686    0.0000 </r>
       <r>   23.3815    0.0000 </r>
      </set>
      <set comment="kpoint 35">
       <r>  -10.7123    1.0000 </r>
       <r>    5.8207    1.0000 </r>
       <r>    5.8207    1.0000 </r>
       <r>    5.8246    1.0000 </r>
       <r>   14.2909    0.0000 </r>
       <r>   19.3053    0.0000 </r>
       <r>   19.3053    0.0000 </r>
       <r>   21.6771    0.0000 </r>
      </set>
      <set comment="kpoint 36">
       <r>  -10.1186    1.0000 </r>
       <r>    4.1450    1.0000 </r>
       <r>    5.2682    1.0000 </r>
       <r>    5.6146    1.0000 </r>
       <r>   14.4634    0.0000 </r>
       <r>   20.2031    0.0000 </r>
       <r>   20.2344    0.0000 </r>
       <r>   20.9667    0.0000 </r>
      </set>
      <set comment="kpoint 37">
       <r>   -9.2991    1.0000 </r>
       <r>    2.2761    1.0000 </r>
       <r>    4.8727    1.0000 </r>
       <r>    5.0526    1.0000 </r>
       <r>   15.0919    0.0000 </r>
       <r>   20.6013    0.0000 </r>
       <r>   20.8683    0.0000 </r>
       <r>   20.9334    0.0000 </r>
      </set>
      <set comment="kpoint 38">
       <r>   -8.2723    1.0000 </r>
       <r>    0.3622    1.0000 </r>
       <r>    4.3602    1.0000 </r>
       <r>    4.6617    1.0000 </r>
       <r>   15.7612    0.0000 </r>
       <r>   20.9660    0.0000 </r>
       <r>   21.1301    0.0000 </r>
       <r>   21.3755    0.0000 </r>
      </set>
      <set comment="kpoint 39">
       <r>   -7.0890    1.0000 </r>
       <r>   -1.4539    1.0000 </r>
       <r>    3.6968    1.0000 </r>
       <r>    4.6459    1.0000 </r>
       <r>   16.2411    0.0000 </r>
       <r>   21.0590    0.0000 </r>
       <r>   21.3418    0.0000 </r>
       <r>   22.3335    0.0000 </r>
      </set>
      <set comment="kpoint 40">
       <r>   -5.9785    1.0000 </r>
       <r>   -2.8850    1.0000 </r>
       <r>    3.1500    1.0000 </r>
       <r>    4.8234    1.0000 </r>
       <r>   16.6112    0.0000 </r>
       <r>   20.7448    0.0000 </r>
       <r>   21.4482    0.0000 </r>
       <r>   23.7827    0.0000 </r>
      </set>
      <set comment="kpoint 41">
       <r>   -5.9949    1.0000 </r>
       <r>   -2.8496    1.0000 </r>
       <r>    2.7688    1.0000 </r>
       <r>    5.1810    1.0000 </r>
       <r>   16.9957    0.0000 </r>
       <r>   20.2551    0.0000 </r>
       <r>   21.4457    0.0000 </r>
       <r>   24.8168    0.0000 </r>
      </set>
      <set comment="kpoint 42">
       <r>   -7.1080    1.0000 </r>
       <r>   -1.3800    1.0000 </r>
       <r>    2.5861    1.0000 </r>
       <r>    5.6920    1.0000 </r>
       <r>   17.4210    0.0000 </r>
       <r>   19.6022    0.0000 </r>
       <r>   21.3173    0.0000 </r>
       <r>   24.4828    0.0000 </r>
      </set>
      <set comment="kpoint 43">
       <r>   -8.2856    1.0000 </r>
       <r>    0.4404    1.0000 </r>
       <r>    2.6473    1.0000 </r>
       <r>    6.3096    1.0000 </r>
       <r>   17.8223    0.0000 </r>
       <r>   18.7797    0.0000 </r>
       <r>   20.8773    0.0000 </r>
       <r>   23.6484    0.0000 </r>
      </set>
      <set comment="kpoint 44">
       <r>   -9.3076    1.0000 </r>
       <r>    2.0869    1.0000 </r>
       <r>    3.2096    1.0000 </r>
       <r>    6.9545    1.0000 </r>
       <r>   17.8554    0.0000 </r>
       <r>   18.0663    0.0000 </r>
       <r>   19.8917    0.0000 </r>
       <r>   23.3357    0.0000 </r>
      </set>
      <set comment="kpoint 45">
       <r>   -9.6061    1.0000 </r>
       <r>    3.9198    1.0000 </r>
       <r>    4.6850    1.0000 </r>
       <r>    4.6850    1.0000 </r>
       <r>   14.0238    0.0000 </r>
       <r>   19.7269    0.0000 </r>
       <r>   21.3639    0.0000 </r>
       <r>   21.3639    0.0000 </r>
      </set>
      <set comment="kpoint 46">
       <r>   -8.8669    1.0000 </r>
       <r>    2.5688    1.0000 </r>
       <r>    4.1658    1.0000 </r>
       <r>    4.2564    1.0000 </r>
       <r>   14.2565    0.0000 </r>
       <r>   18.9851    0.0000 </r>
       <r>   22.2150    0.0000 </r>
       <r>   22.2184    0.0000 </r>
      </set>
      <set comment="kpoint 47">
       <r>   -7.9159    1.0000 </r>
       <r>    0.9913    1.0000 </r>
       <r>    3.3906    1.0000 </r>
       <r>    4.0151    1.0000 </r>
       <r>   14.9098    0.0000 </r>
       <r>   18.9472    0.0000 </r>
       <r>   22.6668    0.0000 </r>
       <r>   22.7546    0.0000 </r>
      </set>
      <set comment="kpoint 48">
       <r>   -6.7893    1.0000 </r>
       <r>   -0.6241    1.0000 </r>
       <r>    2.5424    1.0000 </r>
       <r>    3.9747    1.0000 </r>
       <r>   15.4973    0.0000 </r>
       <r>   19.8235    0.0000 </r>
       <r>   22.7038    0.0000 </r>
       <r>   23.0510    0.0000 </r>
      </set>
      <set comment="kpoint 49">
       <r>   -5.6205    1.0000 </r>
       <r>   -2.0772    1.0000 </r>
       <r>    1.7991    1.0000 </r>
       <r>    4.1361    1.0000 </r>
       <r>   15.9076    0.0000 </r>
       <r>   21.4145    0.0000 </r>
       <r>   22.3922    0.0000 </r>
       <r>   23.2296    0.0000 </r>
      </set>
      <set comment="kpoint 50">
       <r>   -5.1510    1.0000 </r>
       <r>   -2.5792    1.0000 </r>
       <r>    1.2495    1.0000 </r>
       <r>    4.4879    1.0000 </r>
       <r>   16.3135    0.0000 </r>
       <r>   21.8023    0.0000 </r>
       <r>   22.8206    0.0000 </r>
       <r>   23.7223    0.0000 </r>
      </set>
      <set comment="kpoint 51">
       <r>   -6.0579    1.0000 </r>
       <r>   -1.4628    1.0000 </r>
       <r>    0.9647    1.0000 </r>
       <r>    5.0044    1.0000 </r>
       <r>   16.7995    0.0000 </r>
       <r>   20.9656    0.0000 </r>
       <r>   22.9859    0.0000 </r>
       <r>   24.2924    0.0000 </r>
      </set>
      <set comment="kpoint 52">
       <r>   -7.2273    1.0000 </r>
       <r>   -0.1202    1.0000 </r>
       <r>    1.2320    1.0000 </r>
       <r>    5.6387    1.0000 </r>
       <r>   17.3390    0.0000 </r>
       <r>   19.9171    0.0000 </r>
       <r>   22.3958    0.0000 </r>
       <r>   23.6525    0.0000 </r>
      </set>
      <set comment="kpoint 53">
       <r>   -8.2086    1.0000 </r>
       <r>    1.8121    1.0000 </r>
       <r>    3.7873    1.0000 </r>
       <r>    3.7873    1.0000 </r>
       <r>   13.9027    0.0000 </r>
       <r>   17.8049    0.0000 </r>
       <r>   23.3223    0.0000 </r>
       <r>   23.3223    0.0000 </r>
      </set>
      <set comment="kpoint 54">
       <r>   -7.3364    1.0000 </r>
       <r>    0.6385    1.0000 </r>
       <r>    3.1765    1.0000 </r>
       <r>    3.5033    1.0000 </r>
       <r>   14.2282    0.0000 </r>
       <r>   17.2648    0.0000 </r>
       <r>   24.0186    0.0000 </r>
       <r>   24.0569    0.0000 </r>
      </set>
      <set comment="kpoint 55">
       <r>   -6.2777    1.0000 </r>
       <r>   -0.5743    1.0000 </r>
       <r>    2.1780    1.0000 </r>
       <r>    3.4223    1.0000 </r>
       <r>   14.8742    0.0000 </r>
       <r>   17.6083    0.0000 </r>
       <r>   24.2237    0.0000 </r>
       <r>   24.4563    0.0000 </r>
      </set>
      <set comment="kpoint 56">
       <r>   -5.1167    1.0000 </r>
       <r>   -1.7299    1.0000 </r>
       <r>    1.1120    1.0000 </r>
       <r>    3.5482    1.0000 </r>
       <r>   15.3301    0.0000 </r>
       <r>   19.0174    0.0000 </r>
       <r>   23.9582    0.0000 </r>
       <r>   24.6250    0.0000 </r>
      </set>
      <set comment="kpoint 57">
       <r>   -4.3318    1.0000 </r>
       <r>   -2.4166    1.0000 </r>
       <r>    0.2813    1.0000 </r>
       <r>    3.8724    1.0000 </r>
       <r>   15.7191    0.0000 </r>
       <r>   21.0390    0.0000 </r>
       <r>   23.2830    0.0000 </r>
       <r>   24.6481    0.0000 </r>
      </set>
      <set comment="kpoint 58">
       <r>   -4.9610    1.0000 </r>
       <r>   -1.8221    1.0000 </r>
       <r>    0.0297    1.0000 </r>
       <r>    4.3723    1.0000 </r>
       <r>   16.2058    0.0000 </r>
       <r>   22.2538    0.0000 </r>
       <r>   22.9987    0.0000 </r>
       <r>   24.4463    0.0000 </r>
      </set>
      <set comment="kpoint 59">
       <r>   -6.5433    1.0000 </r>
       <r>   -0.3863    1.0000 </r>
       <r>    3.1712    1.0000 </r>
       <r>    3.1712    1.0000 </r>
       <r>   14.0037    0.0000 </r>
       <r>   16.2504    0.0000 </r>
       <r>   24.9693    0.0000 </r>
       <r>   24.9693    0.0000 </r>
      </set>
      <set comment="kpoint 60">
       <r>   -5.5582    1.0000 </r>
       <r>   -1.4758    1.0000 </r>
       <r>    2.6283    1.0000 </r>
       <r>    3.0411    1.0000 </r>
       <r>   14.4372    0.0000 </r>
       <r>   15.9661    0.0000 </r>
       <r>   25.3726    0.0000 </r>
       <r>   25.4551    0.0000 </r>
      </set>
      <set comment="kpoint 61">
       <r>   -4.4380    1.0000 </r>
       <r>   -2.4638    1.0000 </r>
       <r>    1.6282    1.0000 </r>
       <r>    3.1203    1.0000 </r>
       <r>   14.9441    0.0000 </r>
       <r>   16.8357    0.0000 </r>
       <r>   25.1925    0.0000 </r>
       <r>   25.5781    0.0000 </r>
      </set>
      <set comment="kpoint 62">
       <r>   -3.6632    1.0000 </r>
       <r>   -2.9736    1.0000 </r>
       <r>    0.6029    1.0000 </r>
       <r>    3.4038    1.0000 </r>
       <r>   15.2737    0.0000 </r>
       <r>   18.7447    0.0000 </r>
       <r>   24.4663    0.0000 </r>
       <r>   25.3581    0.0000 </r>
      </set>
      <set comment="kpoint 63">
       <r>   -4.6464    1.0000 </r>
       <r>   -2.5700    1.0000 </r>
       <r>    2.8584    1.0000 </r>
       <r>    2.8584    1.0000 </r>
       <r>   14.3903    0.0000 </r>
       <r>   15.1215    0.0000 </r>
       <r>   25.9610    0.0000 </r>
       <r>   25.9610    0.0000 </r>
      </set>
      <set comment="kpoint 64">
       <r>   -3.6064    1.0000 </r>
       <r>   -3.5539    1.0000 </r>
       <r>    2.4509    1.0000 </r>
       <r>    2.8854    1.0000 </r>
       <r>   14.7731    0.0000 </r>
       <r>   15.2630    0.0000 </r>
       <r>   25.8959    0.0000 </r>
       <r>   26.0016    0.0000 </r>
      </set>
      <set comment="kpoint 65">
       <r>  -11.3515    1.0000 </r>
       <r>    6.0419    1.0000 </r>
       <r>    6.6211    1.0000 </r>
       <r>    8.0262    1.0000 </r>
       <r>   15.2133    0.0000 </r>
       <r>   17.3131    0.0000 </r>
       <r>   17.3494    0.0000 </r>
       <r>   23.0591    0.0000 </r>
      </set>
      <set comment="kpoint 66">
       <r>  -10.7540    1.0000 </r>
       <r>    4.2438    1.0000 </r>
       <r>    5.8720    1.0000 </r>
       <r>    7.5997    1.0000 </r>
       <r>   15.8081    0.0000 </r>
       <r>   18.0211    0.0000 </r>
       <r>   18.2289    0.0000 </r>
       <r>   23.1078    0.0000 </r>
      </set>
      <set comment="kpoint 67">
       <r>   -9.9282    1.0000 </r>
       <r>    2.1484    1.0000 </r>
       <r>    5.3949    1.0000 </r>
       <r>    7.0277    1.0000 </r>
       <r>   16.5519    0.0000 </r>
       <r>   18.4122    0.0000 </r>
       <r>   18.9685    0.0000 </r>
       <r>   23.3432    0.0000 </r>
      </set>
      <set comment="kpoint 68">
       <r>   -8.8918    1.0000 </r>
       <r>    0.0624    1.0000 </r>
       <r>    5.0896    1.0000 </r>
       <r>    6.4519    1.0000 </r>
       <r>   17.1823    0.0000 </r>
       <r>   18.5425    0.0000 </r>
       <r>   19.4263    0.0000 </r>
       <r>   23.9106    0.0000 </r>
      </set>
      <set comment="kpoint 69">
       <r>   -7.6939    1.0000 </r>
       <r>   -1.8715    1.0000 </r>
       <r>    4.9435    1.0000 </r>
       <r>    5.9720    1.0000 </r>
       <r>   17.6025    0.0000 </r>
       <r>   18.4895    0.0000 </r>
       <r>   19.6575    0.0000 </r>
       <r>   24.6919    0.0000 </r>
      </set>
      <set comment="kpoint 70">
       <r>   -6.5596    1.0000 </r>
       <r>   -3.3834    1.0000 </r>
       <r>    4.9141    1.0000 </r>
       <r>    5.6781    1.0000 </r>
       <r>   17.8327    0.0000 </r>
       <r>   18.3790    0.0000 </r>
       <r>   19.7520    0.0000 </r>
       <r>   25.2916    0.0000 </r>
      </set>
      <set comment="kpoint 71">
       <r>  -10.5544    1.0000 </r>
       <r>    4.6338    1.0000 </r>
       <r>    5.3736    1.0000 </r>
       <r>    6.7432    1.0000 </r>
       <r>   14.9225    0.0000 </r>
       <r>   19.0095    0.0000 </r>
       <r>   19.2918    0.0000 </r>
       <r>   22.0399    0.0000 </r>
      </set>
      <set comment="kpoint 72">
       <r>   -9.8073    1.0000 </r>
       <r>    2.9132    1.0000 </r>
       <r>    4.6874    1.0000 </r>
       <r>    6.2635    1.0000 </r>
       <r>   15.5547    0.0000 </r>
       <r>   19.4831    0.0000 </r>
       <r>   20.2131    0.0000 </r>
       <r>   21.7526    0.0000 </r>
      </set>
      <set comment="kpoint 73">
       <r>   -8.8442    1.0000 </r>
       <r>    0.9450    1.0000 </r>
       <r>    4.3014    1.0000 </r>
       <r>    5.6836    1.0000 </r>
       <r>   16.2943    0.0000 </r>
       <r>   19.6565    0.0000 </r>
       <r>   20.8024    0.0000 </r>
       <r>   22.0513    0.0000 </r>
      </set>
      <set comment="kpoint 74">
       <r>   -7.6994    1.0000 </r>
       <r>   -0.9741    1.0000 </r>
       <r>    4.0458    1.0000 </r>
       <r>    5.1913    1.0000 </r>
       <r>   16.8588    0.0000 </r>
       <r>   19.5979    0.0000 </r>
       <r>   21.1149    0.0000 </r>
       <r>   22.9563    0.0000 </r>
      </set>
      <set comment="kpoint 75">
       <r>   -6.5008    1.0000 </r>
       <r>   -2.6341    1.0000 </r>
       <r>    3.8156    1.0000 </r>
       <r>    4.9667    1.0000 </r>
       <r>   17.2426    0.0000 </r>
       <r>   19.3980    0.0000 </r>
       <r>   21.2572    0.0000 </r>
       <r>   24.1333    0.0000 </r>
      </set>
      <set comment="kpoint 76">
       <r>   -5.9759    1.0000 </r>
       <r>   -3.2716    1.0000 </r>
       <r>    3.5819    1.0000 </r>
       <r>    5.0778    1.0000 </r>
       <r>   17.5690    0.0000 </r>
       <r>   19.1022    0.0000 </r>
       <r>   21.2559    0.0000 </r>
       <r>   24.9058    0.0000 </r>
      </set>
      <set comment="kpoint 77">
       <r>   -6.8935    1.0000 </r>
       <r>   -2.1098    1.0000 </r>
       <r>    3.4350    1.0000 </r>
       <r>    5.4448    1.0000 </r>
       <r>   17.8919    0.0000 </r>
       <r>   18.7125    0.0000 </r>
       <r>   21.1328    0.0000 </r>
       <r>   24.5330    0.0000 </r>
      </set>
      <set comment="kpoint 78">
       <r>   -8.1024    1.0000 </r>
       <r>   -0.3183    1.0000 </r>
       <r>    3.4493    1.0000 </r>
       <r>    5.9793    1.0000 </r>
       <r>   17.9543    0.0000 </r>
       <r>   18.3948    0.0000 </r>
       <r>   20.8576    0.0000 </r>
       <r>   23.5838    0.0000 </r>
      </set>
      <set comment="kpoint 79">
       <r>   -9.1913    1.0000 </r>
       <r>    1.6253    1.0000 </r>
       <r>    3.6802    1.0000 </r>
       <r>    6.5984    1.0000 </r>
       <r>   17.2599    0.0000 </r>
       <r>   18.5064    0.0000 </r>
       <r>   20.2848    0.0000 </r>
       <r>   22.9135    0.0000 </r>
      </set>
      <set comment="kpoint 80">
       <r>  -10.0834    1.0000 </r>
       <r>    3.3466    1.0000 </r>
       <r>    4.3519    1.0000 </r>
       <r>    7.1898    1.0000 </r>
       <r>   16.4247    0.0000 </r>
       <r>   18.4281    0.0000 </r>
       <r>   19.3273    0.0000 </r>
       <r>   22.8441    0.0000 </r>
      </set>
      <set comment="kpoint 81">
       <r>   -9.4521    1.0000 </r>
       <r>    3.1845    1.0000 </r>
       <r>    4.2648    1.0000 </r>
       <r>    5.2197    1.0000 </r>
       <r>   14.6681    0.0000 </r>
       <r>   20.1752    0.0000 </r>
       <r>   20.8516    0.0000 </r>
       <r>   21.3709    0.0000 </r>
      </set>
      <set comment="kpoint 82">
       <r>   -8.5665    1.0000 </r>
       <r>    1.6447    1.0000 </r>
       <r>    3.6032    1.0000 </r>
       <r>    4.7192    1.0000 </r>
       <r>   15.3522    0.0000 </r>
       <r>   19.9393    0.0000 </r>
       <r>   21.1433    0.0000 </r>
       <r>   22.2590    0.0000 </r>
      </set>
      <set comment="kpoint 83">
       <r>   -7.4874    1.0000 </r>
       <r>   -0.0932    1.0000 </r>
       <r>    3.1145    1.0000 </r>
       <r>    4.2858    1.0000 </r>
       <r>   16.0544    0.0000 </r>
       <r>   20.4473    0.0000 </r>
       <r>   21.1876    0.0000 </r>
       <r>   22.8107    0.0000 </r>
      </set>
      <set comment="kpoint 84">
       <r>   -6.2943    1.0000 </r>
       <r>   -1.7420    1.0000 </r>
       <r>    2.6068    1.0000 </r>
       <r>    4.1612    1.0000 </r>
       <r>   16.5334    0.0000 </r>
       <r>   20.9163    0.0000 </r>
       <r>   21.7563    0.0000 </r>
       <r>   23.1174    0.0000 </r>
      </set>
      <set comment="kpoint 85">
       <r>   -5.4087    1.0000 </r>
       <r>   -2.8031    1.0000 </r>
       <r>    2.1449    1.0000 </r>
       <r>    4.3409    1.0000 </r>
       <r>   16.9189    0.0000 </r>
       <r>   20.6012    0.0000 </r>
       <r>   22.6309    0.0000 </r>
       <r>   23.7752    0.0000 </r>
      </set>
      <set comment="kpoint 86">
       <r>   -5.9467    1.0000 </r>
       <r>   -2.1362    1.0000 </r>
       <r>    1.8326    1.0000 </r>
       <r>    4.7483    1.0000 </r>
       <r>   17.3422    0.0000 </r>
       <r>   20.0784    0.0000 </r>
       <r>   22.6124    0.0000 </r>
       <r>   24.3379    0.0000 </r>
      </set>
      <set comment="kpoint 87">
       <r>   -7.1205    1.0000 </r>
       <r>   -0.5650    1.0000 </r>
       <r>    1.7545    1.0000 </r>
       <r>    5.3185    1.0000 </r>
       <r>   17.8164    0.0000 </r>
       <r>   19.3011    0.0000 </r>
       <r>   22.3710    0.0000 </r>
       <r>   23.4913    0.0000 </r>
      </set>
      <set comment="kpoint 88">
       <r>   -8.2435    1.0000 </r>
       <r>    0.9291    1.0000 </r>
       <r>    2.1943    1.0000 </r>
       <r>    5.9743    1.0000 </r>
       <r>   18.2572    0.0000 </r>
       <r>   18.2878    0.0000 </r>
       <r>   21.6243    0.0000 </r>
       <r>   22.8015    0.0000 </r>
      </set>
      <set comment="kpoint 89">
       <r>   -8.0613    1.0000 </r>
       <r>    1.5251    1.0000 </r>
       <r>    3.3923    1.0000 </r>
       <r>    3.8913    1.0000 </r>
       <r>   14.5502    0.0000 </r>
       <r>   18.3200    0.0000 </r>
       <r>   22.6883    0.0000 </r>
       <r>   23.3432    0.0000 </r>
      </set>
      <set comment="kpoint 90">
       <r>   -7.0556    1.0000 </r>
       <r>    0.2516    1.0000 </r>
       <r>    2.5976    1.0000 </r>
       <r>    3.5171    1.0000 </r>
       <r>   15.2872    0.0000 </r>
       <r>   18.3733    0.0000 </r>
       <r>   22.8281    0.0000 </r>
       <r>   24.0617    0.0000 </r>
      </set>
      <set comment="kpoint 91">
       <r>   -5.9032    1.0000 </r>
       <r>   -1.1014    1.0000 </r>
       <r>    1.7142    1.0000 </r>
       <r>    3.4462    1.0000 </r>
       <r>   15.8919    0.0000 </r>
       <r>   19.4182    0.0000 </r>
       <r>   22.7090    0.0000 </r>
       <r>   24.3317    0.0000 </r>
      </set>
      <set comment="kpoint 92">
       <r>   -4.8426    1.0000 </r>
       <r>   -2.2370    1.0000 </r>
       <r>    0.9566    1.0000 </r>
       <r>    3.6445    1.0000 </r>
       <r>   16.2997    0.0000 </r>
       <r>   21.1944    0.0000 </r>
       <r>   22.3614    0.0000 </r>
       <r>   24.2363    0.0000 </r>
      </set>
      <set comment="kpoint 93">
       <r>   -4.9277    1.0000 </r>
       <r>   -2.0840    1.0000 </r>
       <r>    0.4728    1.0000 </r>
       <r>    4.0586    1.0000 </r>
       <r>   16.7329    0.0000 </r>
       <r>   21.6715    0.0000 </r>
       <r>   23.0371    0.0000 </r>
       <r>   23.9447    0.0000 </r>
      </set>
      <set comment="kpoint 94">
       <r>   -5.9983    1.0000 </r>
       <r>   -1.0268    1.0000 </r>
       <r>    0.5509    1.0000 </r>
       <r>    4.6398    1.0000 </r>
       <r>   17.2567    0.0000 </r>
       <r>   20.6161    0.0000 </r>
       <r>   23.4855    0.0000 </r>
       <r>   23.6578    0.0000 </r>
      </set>
      <set comment="kpoint 95">
       <r>   -6.4082    1.0000 </r>
       <r>   -0.4286    1.0000 </r>
       <r>    2.8045    1.0000 </r>
       <r>    3.0255    1.0000 </r>
       <r>   14.6454    0.0000 </r>
       <r>   16.8147    0.0000 </r>
       <r>   24.3444    0.0000 </r>
       <r>   24.9473    0.0000 </r>
      </set>
      <set comment="kpoint 96">
       <r>   -5.3153    1.0000 </r>
       <r>   -1.4787    1.0000 </r>
       <r>    1.8730    1.0000 </r>
       <r>    2.9035    1.0000 </r>
       <r>   15.3874    0.0000 </r>
       <r>   17.2505    0.0000 </r>
       <r>   24.3328    0.0000 </r>
       <r>   25.2576    0.0000 </r>
      </set>
      <set comment="kpoint 97">
       <r>   -4.2022    1.0000 </r>
       <r>   -2.3956    1.0000 </r>
       <r>    0.7911    1.0000 </r>
       <r>    3.0866    1.0000 </r>
       <r>   15.8174    0.0000 </r>
       <r>   18.8615    0.0000 </r>
       <r>   23.9881    0.0000 </r>
       <r>   25.0149    0.0000 </r>
      </set>
      <set comment="kpoint 98">
       <r>   -4.0199    1.0000 </r>
       <r>   -2.4524    1.0000 </r>
       <r>    0.0884    1.0000 </r>
       <r>    3.4843    1.0000 </r>
       <r>   16.2150    0.0000 </r>
       <r>   21.0205    0.0000 </r>
       <r>   23.1103    0.0000 </r>
       <r>   24.5175    0.0000 </r>
      </set>
      <set comment="kpoint 99">
       <r>   -4.5344    1.0000 </r>
       <r>   -2.5057    1.0000 </r>
       <r>    2.5304    1.0000 </r>
       <r>    2.5932    1.0000 </r>
       <r>   15.0172    0.0000 </r>
       <r>   15.7231    0.0000 </r>
       <r>   25.5181    0.0000 </r>
       <r>   25.7784    0.0000 </r>
      </set>
      <set comment="kpoint 100">
       <r>   -3.5062    1.0000 </r>
       <r>   -3.3169    1.0000 </r>
       <r>    1.6329    1.0000 </r>
       <r>    2.7177    1.0000 </r>
       <r>   15.5084    0.0000 </r>
       <r>   16.7844    0.0000 </r>
       <r>   25.1683    0.0000 </r>
       <r>   25.4790    0.0000 </r>
      </set>
      <set comment="kpoint 101">
       <r>   -8.9938    1.0000 </r>
       <r>    2.0671    1.0000 </r>
       <r>    3.2908    1.0000 </r>
       <r>    5.7659    1.0000 </r>
       <r>   16.2824    0.0000 </r>
       <r>   19.6202    0.0000 </r>
       <r>   21.3634    0.0000 </r>
       <r>   21.4196    0.0000 </r>
      </set>
      <set comment="kpoint 102">
       <r>   -7.9758    1.0000 </r>
       <r>    0.5145    1.0000 </r>
       <r>    2.6955    1.0000 </r>
       <r>    5.1460    1.0000 </r>
       <r>   17.1770    0.0000 </r>
       <r>   19.4506    0.0000 </r>
       <r>   21.5269    0.0000 </r>
       <r>   22.4366    0.0000 </r>
      </set>
      <set comment="kpoint 103">
       <r>   -6.8046    1.0000 </r>
       <r>   -1.2193    1.0000 </r>
       <r>    2.5233    1.0000 </r>
       <r>    4.5873    1.0000 </r>
       <r>   17.8216    0.0000 </r>
       <r>   19.2185    0.0000 </r>
       <r>   22.1267    0.0000 </r>
       <r>   23.2840    0.0000 </r>
      </set>
      <set comment="kpoint 104">
       <r>   -5.7036    1.0000 </r>
       <r>   -2.6316    1.0000 </r>
       <r>    2.4947    1.0000 </r>
       <r>    4.2469    1.0000 </r>
       <r>   18.0965    0.0000 </r>
       <r>   19.0804    0.0000 </r>
       <r>   22.6046    0.0000 </r>
       <r>   24.0901    0.0000 </r>
      </set>
      <set comment="kpoint 105">
       <r>   -7.6254    1.0000 </r>
       <r>    0.8003    1.0000 </r>
       <r>    2.4680    1.0000 </r>
       <r>    4.1550    1.0000 </r>
       <r>   16.2111    0.0000 </r>
       <r>   19.6384    0.0000 </r>
       <r>   21.1788    0.0000 </r>
       <r>   23.4071    0.0000 </r>
      </set>
      <set comment="kpoint 106">
       <r>   -6.5126    1.0000 </r>
       <r>   -0.5005    1.0000 </r>
       <r>    1.8676    1.0000 </r>
       <r>    3.5884    1.0000 </r>
       <r>   17.1300    0.0000 </r>
       <r>   19.9830    0.0000 </r>
       <r>   21.1295    0.0000 </r>
       <r>   24.0843    0.0000 </r>
      </set>
      <set comment="kpoint 107">
       <r>   -5.3567    1.0000 </r>
       <r>   -1.8737    1.0000 </r>
       <r>    1.5139    1.0000 </r>
       <r>    3.3064    1.0000 </r>
       <r>   17.6781    0.0000 </r>
       <r>   20.4048    0.0000 </r>
       <r>   21.7548    0.0000 </r>
       <r>   24.1282    0.0000 </r>
      </set>
      <set comment="kpoint 108">
       <r>   -4.8692    1.0000 </r>
       <r>   -2.4057    1.0000 </r>
       <r>    1.2235    1.0000 </r>
       <r>    3.4189    1.0000 </r>
       <r>   18.0601    0.0000 </r>
       <r>   20.1283    0.0000 </r>
       <r>   23.1247    0.0000 </r>
       <r>   23.5374    0.0000 </r>
      </set>
      <set comment="kpoint 109">
       <r>   -5.7591    1.0000 </r>
       <r>   -1.3690    1.0000 </r>
       <r>    1.0892    1.0000 </r>
       <r>    3.8473    1.0000 </r>
       <r>   18.4810    0.0000 </r>
       <r>   19.4936    0.0000 </r>
       <r>   22.4226    0.0000 </r>
       <r>   23.9876    0.0000 </r>
      </set>
      <set comment="kpoint 110">
       <r>   -6.9218    1.0000 </r>
       <r>   -0.1148    1.0000 </r>
       <r>    1.4294    1.0000 </r>
       <r>    4.4695    1.0000 </r>
       <r>   18.3928    0.0000 </r>
       <r>   18.9960    0.0000 </r>
       <r>   21.7484    0.0000 </r>
       <r>   23.5271    0.0000 </r>
      </set>
      <set comment="kpoint 111">
       <r>   -6.0138    1.0000 </r>
       <r>   -0.6391    1.0000 </r>
       <r>    1.9447    1.0000 </r>
       <r>    2.8063    1.0000 </r>
       <r>   16.3161    0.0000 </r>
       <r>   18.3066    0.0000 </r>
       <r>   22.7235    0.0000 </r>
       <r>   24.8337    0.0000 </r>
      </set>
      <set comment="kpoint 112">
       <r>   -4.8707    1.0000 </r>
       <r>   -1.6398    1.0000 </r>
       <r>    1.1835    1.0000 </r>
       <r>    2.5047    1.0000 </r>
       <r>   17.1716    0.0000 </r>
       <r>   19.2491    0.0000 </r>
       <r>   22.4737    0.0000 </r>
       <r>   24.7133    0.0000 </r>
      </set>
      <set comment="kpoint 113">
       <r>   -4.0637    1.0000 </r>
       <r>   -2.3310    1.0000 </r>
       <r>    0.4815    1.0000 </r>
       <r>    2.6922    1.0000 </r>
       <r>   17.5941    0.0000 </r>
       <r>   21.0702    0.0000 </r>
       <r>   22.1029    0.0000 </r>
       <r>   23.7748    0.0000 </r>
      </set>
      <set comment="kpoint 114">
       <r>   -4.6684    1.0000 </r>
       <r>   -1.7968    1.0000 </r>
       <r>    0.2858    1.0000 </r>
       <r>    3.1748    1.0000 </r>
       <r>   18.0215    0.0000 </r>
       <r>   20.9632    0.0000 </r>
       <r>   22.8375    0.0000 </r>
       <r>   23.1742    0.0000 </r>
      </set>
      <set comment="kpoint 115">
       <r>   -4.2218    1.0000 </r>
       <r>   -2.3652    1.0000 </r>
       <r>    1.7720    1.0000 </r>
       <r>    2.0214    1.0000 </r>
       <r>   16.6661    0.0000 </r>
       <r>   17.3152    0.0000 </r>
       <r>   24.1789    0.0000 </r>
       <r>   25.0923    0.0000 </r>
      </set>
      <set comment="kpoint 116">
       <r>   -3.3793    1.0000 </r>
       <r>   -2.9338    1.0000 </r>
       <r>    0.8808    1.0000 </r>
       <r>    2.1717    1.0000 </r>
       <r>   17.2201    0.0000 </r>
       <r>   18.9244    0.0000 </r>
       <r>   23.6660    0.0000 </r>
       <r>   24.1538    0.0000 </r>
      </set>
      <set comment="kpoint 117">
       <r>   -5.4008    1.0000 </r>
       <r>   -1.1282    1.0000 </r>
       <r>    0.9994    1.0000 </r>
       <r>    2.8541    1.0000 </r>
       <r>   18.5619    0.0000 </r>
       <r>   19.7634    0.0000 </r>
       <r>   21.1618    0.0000 </r>
       <r>   24.4151    0.0000 </r>
      </set>
      <set comment="kpoint 118">
       <r>   -4.3513    1.0000 </r>
       <r>   -2.0289    1.0000 </r>
       <r>    0.7102    1.0000 </r>
       <r>    2.3799    1.0000 </r>
       <r>   19.2362    0.0000 </r>
       <r>   20.0489    0.0000 </r>
       <r>   21.8617    0.0000 </r>
       <r>   23.3947    0.0000 </r>
      </set>
      <set comment="kpoint 119">
       <r>   -3.7964    1.0000 </r>
       <r>   -2.3155    1.0000 </r>
       <r>    1.0055    1.0000 </r>
       <r>    1.6013    1.0000 </r>
       <r>   18.8960    0.0000 </r>
       <r>   19.4102    0.0000 </r>
       <r>   22.1965    0.0000 </r>
       <r>   23.6344    0.0000 </r>
      </set>
      <set comment="kpoint 120">
       <r>   -3.4493    1.0000 </r>
       <r>   -2.5306    1.0000 </r>
       <r>    0.6232    1.0000 </r>
       <r>    1.6756    1.0000 </r>
       <r>   19.3925    0.0000 </r>
       <r>   20.8839    0.0000 </r>
       <r>   21.9050    0.0000 </r>
       <r>   22.1841    0.0000 </r>
      </set>
     </set>
    </set>
   </array>
  </eigenvalues>
  <separator name="orbital magnetization" >
   <v name="MAGDIPOLOUT">      0.00000000      0.00000000      0.00000000</v>
  </separator>
  <dos>
   <i name="efermi">      9.16578330 </i>
   <total>
    <array>
     <dimension dim="1">gridpoints</dimension>
     <dimension dim="2">spin</dimension>
     <field>energy</field>
     <field>total</field>
     <field>integrated</field>
     <set>
      <set comment="spin 1">
       <r>   -14.0638     0.0000     0.0000 </r>
       <r>   -13.9239     0.0000     0.0000 </r>
       <r>   -13.7840     0.0000     0.0000 </r>
       <r>   -13.6441     0.0000     0.0000 </r>
       <r>   -13.5042     0.0000     0.0000 </r>
       <r>   -13.3643     0.0000     0.0000 </r>
       <r>   -13.2244     0.0000     0.0000 </r>
       <r>   -13.0844     0.0000     0.0000 </r>
       <r>   -12.9445     0.0000     0.0000 </r>
       <r>   -12.8046     0.0000     0.0000 </r>
       <r>   -12.6647     0.0000     0.0000 </r>
       <r>   -12.5248     0.0000     0.0000 </r>
       <r>   -12.3849     0.0000     0.0000 </r>
       <r>   -12.2450     0.0000     0.0000 </r>
       <r>   -12.1051     0.0047     0.0007 </r>
       <r>   -11.9652     0.0528     0.0081 </r>
       <r>   -11.8252     0.0361     0.0131 </r>
       <r>   -11.6853     0.1122     0.0288 </r>
       <r>   -11.5454     0.0484     0.0356 </r>
       <r>   -11.4055     0.0630     0.0444 </r>
       <r>   -11.2656     0.1625     0.0671 </r>
       <r>   -11.1257     0.1061     0.0820 </r>
       <r>   -10.9858     0.1291     0.1000 </r>
       <r>   -10.8459     0.0417     0.1058 </r>
       <r>   -10.7060     0.2715     0.1438 </r>
       <r>   -10.5660     0.1068     0.1588 </r>
       <r>   -10.4261     0.1498     0.1797 </r>
       <r>   -10.2862     0.1211     0.1967 </r>
       <r>   -10.1463     0.0825     0.2082 </r>
       <r>   -10.0064     0.2537     0.2437 </r>
       <r>    -9.8665     0.2104     0.2732 </r>
       <r>    -9.7266     0.2938     0.3143 </r>
       <r>    -9.5867     0.0217     0.3173 </r>
       <r>    -9.4468     0.2304     0.3495 </r>
       <r>    -9.3068     0.1492     0.3704 </r>
       <r>    -9.1669     0.3054     0.4131 </r>
       <r>    -9.0270     0.1356     0.4321 </r>
       <r>    -8.8871     0.2479     0.4668 </r>
       <r>    -8.7472     0.3591     0.5170 </r>
       <r>    -8.6073     0.1119     0.5327 </r>
       <r>    -8.4674     0.1811     0.5580 </r>
       <r>    -8.3275     0.1449     0.5783 </r>
       <r>    -8.1876     0.3736     0.6306 </r>
       <r>    -8.0476     0.2882     0.6709 </r>
       <r>    -7.9077     0.4221     0.7299 </r>
       <r>    -7.7678     0.0566     0.7379 </r>
       <r>    -7.6279     0.4348     0.7987 </r>
       <r>    -7.4880     0.2087     0.8279 </r>
       <r>    -7.3481     0.1983     0.8556 </r>
       <r>    -7.2082     0.1249     0.8731 </r>
       <r>    -7.0683     0.5876     0.9553 </r>
       <r>    -6.9284     0.2923     0.9962 </r>
       <r>    -6.7884     0.5108     1.0677 </r>
       <r>    -6.6485     0.1593     1.0900 </r>
       <r>    -6.5086     0.4892     1.1584 </r>
       <r>    -6.3687     0.3387     1.2058 </r>
       <r>    -6.2288     0.3803     1.2590 </r>
       <r>    -6.0889     0.0579     1.2671 </r>
       <r>    -5.9490     0.7181     1.3676 </r>
       <r>    -5.8091     0.3934     1.4226 </r>
       <r>    -5.6692     0.3650     1.4737 </r>
       <r>    -5.5292     0.2080     1.5028 </r>
       <r>    -5.3893     0.2691     1.5404 </r>
       <r>    -5.2494     0.4576     1.6044 </r>
       <r>    -5.1095     0.1548     1.6261 </r>
       <r>    -4.9696     0.1004     1.6401 </r>
       <r>    -4.8297     0.6935     1.7372 </r>
       <r>    -4.6898     0.1555     1.7589 </r>
       <r>    -4.5499     0.1301     1.7771 </r>
       <r>    -4.4100     0.1593     1.7994 </r>
       <r>    -4.2700     0.3235     1.8447 </r>
       <r>    -4.1301     0.2984     1.8864 </r>
       <r>    -3.9902     0.2792     1.9255 </r>
       <r>    -3.8503     0.0483     1.9323 </r>
       <r>    -3.7104     0.1856     1.9582 </r>
       <r>    -3.5705     0.1616     1.9808 </r>
       <r>    -3.4306     0.3174     2.0252 </r>
       <r>    -3.2907     0.4478     2.0879 </r>
       <r>    -3.1508     0.2125     2.1176 </r>
       <r>    -3.0108     0.0662     2.1269 </r>
       <r>    -2.8709     0.2918     2.1677 </r>
       <r>    -2.7310     0.3570     2.2176 </r>
       <r>    -2.5911     0.4919     2.2865 </r>
       <r>    -2.4512     0.5101     2.3578 </r>
       <r>    -2.3113     0.9452     2.4901 </r>
       <r>    -2.1714     0.3564     2.5399 </r>
       <r>    -2.0315     0.7753     2.6484 </r>
       <r>    -1.8916     0.2564     2.6843 </r>
       <r>    -1.7517     0.5330     2.7589 </r>
       <r>    -1.6117     0.3691     2.8105 </r>
       <r>    -1.4718     0.2935     2.8516 </r>
       <r>    -1.3319     0.6251     2.9390 </r>
       <r>    -1.1920     0.2264     2.9707 </r>
       <r>    -1.0521     0.4320     3.0311 </r>
       <r>    -0.9122     0.2881     3.0714 </r>
       <r>    -0.7723     0.0388     3.0769 </r>
       <r>    -0.6324     0.1828     3.1024 </r>
       <r>    -0.4925     0.6105     3.1879 </r>
       <r>    -0.3525     0.2460     3.2223 </r>
       <r>    -0.2126     0.1768     3.2470 </r>
       <r>    -0.0727     0.3141     3.2910 </r>
       <r>     0.0672     0.2581     3.3271 </r>
       <r>     0.2071     0.1961     3.3545 </r>
       <r>     0.3470     0.4086     3.4117 </r>
       <r>     0.4869     0.4625     3.4764 </r>
       <r>     0.6268     0.6156     3.5625 </r>
       <r>     0.7667     0.4324     3.6230 </r>
       <r>     0.9067     0.4986     3.6928 </r>
       <r>     1.0466     0.8579     3.8128 </r>
       <r>     1.1865     0.4539     3.8763 </r>
       <r>     1.3264     0.4526     3.9396 </r>
       <r>     1.4663     0.2078     3.9687 </r>
       <r>     1.6062     0.5586     4.0469 </r>
       <r>     1.7461     0.8968     4.1723 </r>
       <r>     1.8860     0.8235     4.2875 </r>
       <r>     2.0259     0.3395     4.3350 </r>
       <r>     2.1659     0.5823     4.4165 </r>
       <r>     2.3058     0.4073     4.4735 </r>
       <r>     2.4457     0.2936     4.5146 </r>
       <r>     2.5856     1.1722     4.6786 </r>
       <r>     2.7255     1.0437     4.8246 </r>
       <r>     2.8654     0.6799     4.9197 </r>
       <r>     3.0053     0.5836     5.0014 </r>
       <r>     3.1452     0.7042     5.0999 </r>
       <r>     3.2851     0.5731     5.1801 </r>
       <r>     3.4251     0.8701     5.3018 </r>
       <r>     3.5650     1.3475     5.4903 </r>
       <r>     3.7049     0.9848     5.6281 </r>
       <r>     3.8448     0.4376     5.6894 </r>
       <r>     3.9847     0.4411     5.7511 </r>
       <r>     4.1246     0.6377     5.8403 </r>
       <r>     4.2645     1.0414     5.9860 </r>
       <r>     4.4044     1.1510     6.1470 </r>
       <r>     4.5443     0.3703     6.1988 </r>
       <r>     4.6843     0.7748     6.3072 </r>
       <r>     4.8242     0.7343     6.4100 </r>
       <r>     4.9641     0.7506     6.5150 </r>
       <r>     5.1040     0.7371     6.6181 </r>
       <r>     5.2439     0.6923     6.7150 </r>
       <r>     5.3838     0.6257     6.8025 </r>
[...]
       </set>
       <set comment="band 5">
        <r>  0.0413  0.0104  0.2165  0.0183  0.0000  0.0000  0.0000  0.0000  0.0000 </r>
        <r>  0.0413  0.0104  0.2165  0.0183  0.0000  0.0000  0.0000  0.0000  0.0000 </r>
       </set>
       <set comment="band 6">
        <r>  0.0416  0.0721  0.0511  0.0853  0.0000  0.0000  0.0000  0.0000  0.0000 </r>
        <r>  0.0416  0.0721  0.0511  0.0853  0.0000  0.0000  0.0000  0.0000  0.0000 </r>
       </set>
       <set comment="band 7">
        <r>  0.1432  0.0846  0.0020  0.0626  0.0000  0.0000  0.0000  0.0000  0.0000 </r>
        <r>  0.1432  0.0846  0.0020  0.0626  0.0000  0.0000  0.0000  0.0000  0.0000 </r>
       </set>
       <set comment="band 8">
        <r>  0.0305  0.1137  0.0766  0.1585  0.0000  0.0000  0.0000  0.0000  0.0000 </r>
        <r>  0.0305  0.1137  0.0766  0.1585  0.0000  0.0000  0.0000  0.0000  0.0000 </r>
       </set>
      </set>
      <set comment="kpoint 111">
       <set comment="band 1">
        <r>  0.2408  0.0136  0.0036  0.0604  0.0000  0.0000  0.0000  0.0000  0.0000 </r>
        <r>  0.2408  0.0136  0.0036  0.0604  0.0000  0.0000  0.0000  0.0000  0.0000 </r>
       </set>
       <set comment="band 2">
        <r>  0.1951  0.0344  0.0221  0.0997  0.0000  0.0000  0.0000  0.0000  0.0000 </r>
        <r>  0.1951  0.0344  0.0221  0.0997  0.0000  0.0000  0.0000  0.0000  0.0000 </r>
       </set>
       <set comment="band 3">
        <r>  0.0170  0.0696  0.1400  0.0867  0.0000  0.0000  0.0000  0.0000  0.0000 </r>
        <r>  0.0170  0.0696  0.1400  0.0867  0.0000  0.0000  0.0000  0.0000  0.0000 </r>
       </set>
       <set comment="band 4">
        <r>  0.0012  0.1682  0.1301  0.0171  0.0000  0.0000  0.0000  0.0000  0.0000 </r>
        <r>  0.0012  0.1682  0.1301  0.0171  0.0000  0.0000  0.0000  0.0000  0.0000 </r>
       </set>
       <set comment="band 5">
        <r>  0.0792  0.0976  0.0327  0.0293  0.0000  0.0000  0.0000  0.0000  0.0000 </r>
        <r>  0.0792  0.0976  0.0327  0.0293  0.0000  0.0000  0.0000  0.0000  0.0000 </r>
       </set>
       <set comment="band 6">
        <r>  0.0867  0.0018  0.0299  0.0757  0.0000  0.0000  0.0000  0.0000  0.0000 </r>
        <r>  0.0867  0.0018  0.0299  0.0757  0.0000  0.0000  0.0000  0.0000  0.0000 </r>
       </set>
       <set comment="band 7">
        <r>  0.0553  0.1295  0.1379  0.0260  0.0000  0.0000  0.0000  0.0000  0.0000 </r>
        <r>  0.0553  0.1295  0.1379  0.0260  0.0000  0.0000  0.0000  0.0000  0.0000 </r>
       </set>
       <set comment="band 8">
        <r>  0.0137  0.1228  0.1941  0.0719  0.0000  0.0000  0.0000  0.0000  0.0000 </r>
        <r>  0.0137  0.1228  0.1941  0.0719  0.0000  0.0000  0.0000  0.0000  0.0000 </r>
       </set>
      </set>
      <set comment="kpoint 112">
       <set comment="band 1">
        <r>  0.2408  0.0169  0.0042  0.0663  0.0000  0.0000  0.0000  0.0000  0.0000 </r>
        <r>  0.2408  0.0169  0.0042  0.0663  0.0000  0.0000  0.0000  0.0000  0.0000 </r>
       </set>
       <set comment="band 2">
        <r>  0.2048  0.0289  0.0083  0.1037  0.0000  0.0000  0.0000  0.0000  0.0000 </r>
        <r>  0.2048  0.0289  0.0083  0.1037  0.0000  0.0000  0.0000  0.0000  0.0000 </r>
       </set>
       <set comment="band 3">
        <r>  0.0176  0.1737  0.0319  0.0770  0.0000  0.0000  0.0000  0.0000  0.0000 </r>
        <r>  0.0176  0.1737  0.0319  0.0770  0.0000  0.0000  0.0000  0.0000  0.0000 </r>
       </set>
       <set comment="band 4">
        <r>  0.0026  0.0509  0.2527  0.0078  0.0000  0.0000  0.0000  0.0000  0.0000 </r>
        <r>  0.0026  0.0509  0.2527  0.0078  0.0000  0.0000  0.0000  0.0000  0.0000 </r>
       </set>
       <set comment="band 5">
        <r>  0.0765  0.0789  0.0503  0.0230  0.0000  0.0000  0.0000  0.0000  0.0000 </r>
        <r>  0.0765  0.0789  0.0503  0.0230  0.0000  0.0000  0.0000  0.0000  0.0000 </r>
       </set>
       <set comment="band 6">
        <r>  0.0653  0.0481  0.0176  0.0944  0.0000  0.0000  0.0000  0.0000  0.0000 </r>
        <r>  0.0653  0.0481  0.0176  0.0944  0.0000  0.0000  0.0000  0.0000  0.0000 </r>
       </set>
       <set comment="band 7">
        <r>  0.0687  0.1054  0.1529  0.0151  0.0000  0.0000  0.0000  0.0000  0.0000 </r>
        <r>  0.0687  0.1054  0.1529  0.0151  0.0000  0.0000  0.0000  0.0000  0.0000 </r>
       </set>
       <set comment="band 8">
        <r>  0.0318  0.1167  0.1586  0.0874  0.0000  0.0000  0.0000  0.0000  0.0000 </r>
        <r>  0.0318  0.1167  0.1586  0.0874  0.0000  0.0000  0.0000  0.0000  0.0000 </r>
       </set>
      </set>
      <set comment="kpoint 113">
       <set comment="band 1">
        <r>  0.2572  0.0341  0.0065  0.0440  0.0000  0.0000  0.0000  0.0000  0.0000 </r>
        <r>  0.2572  0.0341  0.0065  0.0440  0.0000  0.0000  0.0000  0.0000  0.0000 </r>
       </set>
       <set comment="band 2">
        <r>  0.1933  0.0215  0.0028  0.1169  0.0000  0.0000  0.0000  0.0000  0.0000 </r>
        <r>  0.1933  0.0215  0.0028  0.1169  0.0000  0.0000  0.0000  0.0000  0.0000 </r>
       </set>
       <set comment="band 3">
        <r>  0.0147  0.1874  0.0060  0.0806  0.0000  0.0000  0.0000  0.0000  0.0000 </r>
        <r>  0.0147  0.1874  0.0060  0.0806  0.0000  0.0000  0.0000  0.0000  0.0000 </r>
       </set>
       <set comment="band 4">
        <r>  0.0059  0.0165  0.2845  0.0107  0.0000  0.0000  0.0000  0.0000  0.0000 </r>
        <r>  0.0059  0.0165  0.2845  0.0107  0.0000  0.0000  0.0000  0.0000  0.0000 </r>
       </set>
       <set comment="band 5">
        <r>  0.0708  0.0554  0.0541  0.0416  0.0000  0.0000  0.0000  0.0000  0.0000 </r>
        <r>  0.0708  0.0554  0.0541  0.0416  0.0000  0.0000  0.0000  0.0000  0.0000 </r>
       </set>
       <set comment="band 6">
        <r>  0.0299  0.0841  0.0585  0.0812  0.0000  0.0000  0.0000  0.0000  0.0000 </r>
        <r>  0.0299  0.0841  0.0585  0.0812  0.0000  0.0000  0.0000  0.0000  0.0000 </r>
       </set>
       <set comment="band 7">
        <r>  0.0825  0.0790  0.1613  0.0261  0.0000  0.0000  0.0000  0.0000  0.0000 </r>
        <r>  0.0825  0.0790  0.1613  0.0261  0.0000  0.0000  0.0000  0.0000  0.0000 </r>
       </set>
       <set comment="band 8">
        <r>  0.0675  0.1177  0.0674  0.1070  0.0000  0.0000  0.0000  0.0000  0.0000 </r>
        <r>  0.0675  0.1177  0.0674  0.1070  0.0000  0.0000  0.0000  0.0000  0.0000 </r>
       </set>
      </set>
      <set comment="kpoint 114">
       <set comment="band 1">
        <r>  0.2544  0.0433  0.0063  0.0314  0.0000  0.0000  0.0000  0.0000  0.0000 </r>
        <r>  0.2544  0.0433  0.0063  0.0314  0.0000  0.0000  0.0000  0.0000  0.0000 </r>
       </set>
       <set comment="band 2">
        <r>  0.1938  0.0639  0.0023  0.0799  0.0000  0.0000  0.0000  0.0000  0.0000 </r>
        <r>  0.1938  0.0639  0.0023  0.0799  0.0000  0.0000  0.0000  0.0000  0.0000 </r>
       </set>
       <set comment="band 3">
        <r>  0.0136  0.1380  0.0027  0.1311  0.0000  0.0000  0.0000  0.0000  0.0000 </r>
        <r>  0.0136  0.1380  0.0027  0.1311  0.0000  0.0000  0.0000  0.0000  0.0000 </r>
       </set>
       <set comment="band 4">
        <r>  0.0075  0.0076  0.2926  0.0151  0.0000  0.0000  0.0000  0.0000  0.0000 </r>
        <r>  0.0075  0.0076  0.2926  0.0151  0.0000  0.0000  0.0000  0.0000  0.0000 </r>
       </set>
       <set comment="band 5">
        <r>  0.0615  0.0489  0.0538  0.0622  0.0000  0.0000  0.0000  0.0000  0.0000 </r>
        <r>  0.0615  0.0489  0.0538  0.0622  0.0000  0.0000  0.0000  0.0000  0.0000 </r>
       </set>
       <set comment="band 6">
        <r>  0.0261  0.0057  0.2590  0.0103  0.0000  0.0000  0.0000  0.0000  0.0000 </r>
        <r>  0.0261  0.0057  0.2590  0.0103  0.0000  0.0000  0.0000  0.0000  0.0000 </r>
       </set>
       <set comment="band 7">
        <r>  0.1085  0.1330  0.0004  0.0872  0.0000  0.0000  0.0000  0.0000  0.0000 </r>
        <r>  0.1085  0.1330  0.0004  0.0872  0.0000  0.0000  0.0000  0.0000  0.0000 </r>
       </set>
       <set comment="band 8">
        <r>  0.0616  0.1420  0.0052  0.1404  0.0000  0.0000  0.0000  0.0000  0.0000 </r>
        <r>  0.0616  0.1420  0.0052  0.1404  0.0000  0.0000  0.0000  0.0000  0.0000 </r>
       </set>
      </set>
      <set comment="kpoint 115">
       <set comment="band 1">
        <r>  0.2303  0.0237  0.0040  0.0717  0.0000  0.0000  0.0000  0.0000  0.0000 </r>
        <r>  0.2303  0.0237  0.0040  0.0717  0.0000  0.0000  0.0000  0.0000  0.0000 </r>
       </set>
       <set comment="band 2">
        <r>  0.2181  0.0418  0.0077  0.0748  0.0000  0.0000  0.0000  0.0000  0.0000 </r>
        <r>  0.2181  0.0418  0.0077  0.0748  0.0000  0.0000  0.0000  0.0000  0.0000 </r>
       </set>
       <set comment="band 3">
        <r>  0.0105  0.0679  0.1415  0.0911  0.0000  0.0000  0.0000  0.0000  0.0000 </r>
        <r>  0.0105  0.0679  0.1415  0.0911  0.0000  0.0000  0.0000  0.0000  0.0000 </r>
       </set>
       <set comment="band 4">
        <r>  0.0024  0.1452  0.1406  0.0224  0.0000  0.0000  0.0000  0.0000  0.0000 </r>
        <r>  0.0024  0.1452  0.1406  0.0224  0.0000  0.0000  0.0000  0.0000  0.0000 </r>
       </set>
       <set comment="band 5">
        <r>  0.0868  0.0841  0.0314  0.0189  0.0000  0.0000  0.0000  0.0000  0.0000 </r>
        <r>  0.0868  0.0841  0.0314  0.0189  0.0000  0.0000  0.0000  0.0000  0.0000 </r>
       </set>
       <set comment="band 6">
        <r>  0.0890  0.0034  0.0302  0.0831  0.0000  0.0000  0.0000  0.0000  0.0000 </r>
        <r>  0.0890  0.0034  0.0302  0.0831  0.0000  0.0000  0.0000  0.0000  0.0000 </r>
       </set>
       <set comment="band 7">
        <r>  0.0379  0.1472  0.1560  0.0284  0.0000  0.0000  0.0000  0.0000  0.0000 </r>
        <r>  0.0379  0.1472  0.1560  0.0284  0.0000  0.0000  0.0000  0.0000  0.0000 </r>
       </set>
       <set comment="band 8">
        <r>  0.0227  0.0958  0.1821  0.0970  0.0000  0.0000  0.0000  0.0000  0.0000 </r>
        <r>  0.0227  0.0958  0.1821  0.0970  0.0000  0.0000  0.0000  0.0000  0.0000 </r>
       </set>
      </set>
      <set comment="kpoint 116">
       <set comment="band 1">
        <r>  0.2437  0.0342  0.0080  0.0571  0.0000  0.0000  0.0000  0.0000  0.0000 </r>
        <r>  0.2437  0.0342  0.0080  0.0571  0.0000  0.0000  0.0000  0.0000  0.0000 </r>
       </set>
       <set comment="band 2">
        <r>  0.2173  0.0450  0.0024  0.0724  0.0000  0.0000  0.0000  0.0000  0.0000 </r>
        <r>  0.2173  0.0450  0.0024  0.0724  0.0000  0.0000  0.0000  0.0000  0.0000 </r>
       </set>
       <set comment="band 3">
        <r>  0.0022  0.1763  0.0002  0.1126  0.0000  0.0000  0.0000  0.0000  0.0000 </r>
        <r>  0.0022  0.1763  0.0002  0.1126  0.0000  0.0000  0.0000  0.0000  0.0000 </r>
       </set>
       <set comment="band 4">
        <r>  0.0065  0.0071  0.2854  0.0141  0.0000  0.0000  0.0000  0.0000  0.0000 </r>
        <r>  0.0065  0.0071  0.2854  0.0141  0.0000  0.0000  0.0000  0.0000  0.0000 </r>
       </set>
       <set comment="band 5">
        <r>  0.0815  0.0311  0.0550  0.0484  0.0000  0.0000  0.0000  0.0000  0.0000 </r>
        <r>  0.0815  0.0311  0.0550  0.0484  0.0000  0.0000  0.0000  0.0000  0.0000 </r>
       </set>
       <set comment="band 6">
        <r>  0.0694  0.0840  0.0100  0.0740  0.0000  0.0000  0.0000  0.0000  0.0000 </r>
        <r>  0.0694  0.0840  0.0100  0.0740  0.0000  0.0000  0.0000  0.0000  0.0000 </r>
       </set>
       <set comment="band 7">
        <r>  0.0358  0.0082  0.3004  0.0161  0.0000  0.0000  0.0000  0.0000  0.0000 </r>
        <r>  0.0358  0.0082  0.3004  0.0161  0.0000  0.0000  0.0000  0.0000  0.0000 </r>
       </set>
       <set comment="band 8">
        <r>  0.0567  0.1969  0.0000  0.1124  0.0000  0.0000  0.0000  0.0000  0.0000 </r>
        <r>  0.0567  0.1969  0.0000  0.1124  0.0000  0.0000  0.0000  0.0000  0.0000 </r>
       </set>
      </set>
      <set comment="kpoint 117">
       <set comment="band 1">
        <r>  0.2453  0.0105  0.0082  0.0613  0.0000  0.0000  0.0000  0.0000  0.0000 </r>
        <r>  0.2453  0.0105  0.0082  0.0613  0.0000  0.0000  0.0000  0.0000  0.0000 </r>
       </set>
       <set comment="band 2">
        <r>  0.1950  0.0313  0.0430  0.0783  0.0000  0.0000  0.0000  0.0000  0.0000 </r>
        <r>  0.1950  0.0313  0.0430  0.0783  0.0000  0.0000  0.0000  0.0000  0.0000 </r>
       </set>
       <set comment="band 3">
        <r>  0.0207  0.0550  0.1229  0.0995  0.0000  0.0000  0.0000  0.0000  0.0000 </r>
        <r>  0.0207  0.0550  0.1229  0.0995  0.0000  0.0000  0.0000  0.0000  0.0000 </r>
       </set>
       <set comment="band 4">
        <r>  0.0058  0.1867  0.1008  0.0210  0.0000  0.0000  0.0000  0.0000  0.0000 </r>
        <r>  0.0058  0.1867  0.1008  0.0210  0.0000  0.0000  0.0000  0.0000  0.0000 </r>
       </set>
       <set comment="band 5">
        <r>  0.0549  0.1336  0.0557  0.0231  0.0000  0.0000  0.0000  0.0000  0.0000 </r>
        <r>  0.0549  0.1336  0.0557  0.0231  0.0000  0.0000  0.0000  0.0000  0.0000 </r>
       </set>
       <set comment="band 6">
        <r>  0.0007  0.0388  0.0949  0.0662  0.0000  0.0000  0.0000  0.0000  0.0000 </r>
        <r>  0.0007  0.0388  0.0949  0.0662  0.0000  0.0000  0.0000  0.0000  0.0000 </r>
       </set>
       <set comment="band 7">
        <r>  0.1577  0.0661  0.0570  0.0584  0.0000  0.0000  0.0000  0.0000  0.0000 </r>
        <r>  0.1577  0.0661  0.0570  0.0584  0.0000  0.0000  0.0000  0.0000  0.0000 </r>
       </set>
       <set comment="band 8">
        <r>  0.0346  0.0947  0.1756  0.0899  0.0000  0.0000  0.0000  0.0000  0.0000 </r>
        <r>  0.0346  0.0947  0.1756  0.0899  0.0000  0.0000  0.0000  0.0000  0.0000 </r>
       </set>
      </set>
      <set comment="kpoint 118">
       <set comment="band 1">
        <r>  0.2531  0.0201  0.0113  0.0532  0.0000  0.0000  0.0000  0.0000  0.0000 </r>
        <r>  0.2531  0.0201  0.0113  0.0532  0.0000  0.0000  0.0000  0.0000  0.0000 </r>
       </set>
       <set comment="band 2">
        <r>  0.1921  0.0257  0.0140  0.1056  0.0000  0.0000  0.0000  0.0000  0.0000 </r>
        <r>  0.1921  0.0257  0.0140  0.1056  0.0000  0.0000  0.0000  0.0000  0.0000 </r>
       </set>
       <set comment="band 3">
        <r>  0.0258  0.1052  0.0879  0.0772  0.0000  0.0000  0.0000  0.0000  0.0000 </r>
        <r>  0.0258  0.1052  0.0879  0.0772  0.0000  0.0000  0.0000  0.0000  0.0000 </r>
       </set>
       <set comment="band 4">
        <r>  0.0032  0.1216  0.1637  0.0195  0.0000  0.0000  0.0000  0.0000  0.0000 </r>
        <r>  0.0032  0.1216  0.1637  0.0195  0.0000  0.0000  0.0000  0.0000  0.0000 </r>
       </set>
       <set comment="band 5">
        <r>  0.0232  0.0994  0.0851  0.0219  0.0000  0.0000  0.0000  0.0000  0.0000 </r>
        <r>  0.0232  0.0994  0.0851  0.0219  0.0000  0.0000  0.0000  0.0000  0.0000 </r>
       </set>
       <set comment="band 6">
        <r>  0.0576  0.0624  0.1316  0.0201  0.0000  0.0000  0.0000  0.0000  0.0000 </r>
        <r>  0.0576  0.0624  0.1316  0.0201  0.0000  0.0000  0.0000  0.0000  0.0000 </r>
       </set>
       <set comment="band 7">
        <r>  0.1125  0.0886  0.0100  0.1142  0.0000  0.0000  0.0000  0.0000  0.0000 </r>
        <r>  0.1125  0.0886  0.0100  0.1142  0.0000  0.0000  0.0000  0.0000  0.0000 </r>
       </set>
       <set comment="band 8">
        <r>  0.0599  0.0657  0.1150  0.1125  0.0000  0.0000  0.0000  0.0000  0.0000 </r>
        <r>  0.0599  0.0657  0.1150  0.1125  0.0000  0.0000  0.0000  0.0000  0.0000 </r>
       </set>
      </set>
      <set comment="kpoint 119">
       <set comment="band 1">
        <r>  0.2404  0.0226  0.0106  0.0645  0.0000  0.0000  0.0000  0.0000  0.0000 </r>
        <r>  0.2404  0.0226  0.0106  0.0645  0.0000  0.0000  0.0000  0.0000  0.0000 </r>
       </set>
       <set comment="band 2">
        <r>  0.2270  0.0360  0.0217  0.0630  0.0000  0.0000  0.0000  0.0000  0.0000 </r>
        <r>  0.2270  0.0360  0.0217  0.0630  0.0000  0.0000  0.0000  0.0000  0.0000 </r>
       </set>
       <set comment="band 3">
        <r>  0.0083  0.0494  0.1233  0.1135  0.0000  0.0000  0.0000  0.0000  0.0000 </r>
        <r>  0.0083  0.0494  0.1233  0.1135  0.0000  0.0000  0.0000  0.0000  0.0000 </r>
       </set>
       <set comment="band 4">
        <r>  0.0000  0.1627  0.1162  0.0187  0.0000  0.0000  0.0000  0.0000  0.0000 </r>
        <r>  0.0000  0.1627  0.1162  0.0187  0.0000  0.0000  0.0000  0.0000  0.0000 </r>
       </set>
       <set comment="band 5">
        <r>  0.0597  0.1191  0.0566  0.0119  0.0000  0.0000  0.0000  0.0000  0.0000 </r>
        <r>  0.0597  0.1191  0.0566  0.0119  0.0000  0.0000  0.0000  0.0000  0.0000 </r>
       </set>
       <set comment="band 6">
        <r>  0.0485  0.0066  0.0622  0.1055  0.0000  0.0000  0.0000  0.0000  0.0000 </r>
        <r>  0.0485  0.0066  0.0622  0.1055  0.0000  0.0000  0.0000  0.0000  0.0000 </r>
       </set>
       <set comment="band 7">
        <r>  0.0870  0.1219  0.1034  0.0255  0.0000  0.0000  0.0000  0.0000  0.0000 </r>
        <r>  0.0870  0.1219  0.1034  0.0255  0.0000  0.0000  0.0000  0.0000  0.0000 </r>
       </set>
       <set comment="band 8">
        <r>  0.0527  0.0581  0.1352  0.1105  0.0000  0.0000  0.0000  0.0000  0.0000 </r>
        <r>  0.0527  0.0581  0.1352  0.1105  0.0000  0.0000  0.0000  0.0000  0.0000 </r>
       </set>
      </set>
      <set comment="kpoint 120">
       <set comment="band 1">
        <r>  0.2497  0.0375  0.0167  0.0415  0.0000  0.0000  0.0000  0.0000  0.0000 </r>
        <r>  0.2497  0.0375  0.0167  0.0415  0.0000  0.0000  0.0000  0.0000  0.0000 </r>
       </set>
       <set comment="band 2">
        <r>  0.2250  0.0468  0.0110  0.0622  0.0000  0.0000  0.0000  0.0000  0.0000 </r>
        <r>  0.2250  0.0468  0.0110  0.0622  0.0000  0.0000  0.0000  0.0000  0.0000 </r>
       </set>
       <set comment="band 3">
        <r>  0.0009  0.1576  0.0024  0.1242  0.0000  0.0000  0.0000  0.0000  0.0000 </r>
        <r>  0.0009  0.1576  0.0024  0.1242  0.0000  0.0000  0.0000  0.0000  0.0000 </r>
       </set>
       <set comment="band 4">
        <r>  0.0032  0.0173  0.2450  0.0340  0.0000  0.0000  0.0000  0.0000  0.0000 </r>
        <r>  0.0032  0.0173  0.2450  0.0340  0.0000  0.0000  0.0000  0.0000  0.0000 </r>
       </set>
       <set comment="band 5">
        <r>  0.0385  0.0504  0.0890  0.0540  0.0000  0.0000  0.0000  0.0000  0.0000 </r>
        <r>  0.0385  0.0504  0.0890  0.0540  0.0000  0.0000  0.0000  0.0000  0.0000 </r>
       </set>
       <set comment="band 6">
        <r>  0.0004  0.0486  0.1574  0.0294  0.0000  0.0000  0.0000  0.0000  0.0000 </r>
        <r>  0.0004  0.0486  0.1574  0.0294  0.0000  0.0000  0.0000  0.0000  0.0000 </r>
       </set>
       <set comment="band 7">
        <r>  0.1111  0.0760  0.0738  0.0930  0.0000  0.0000  0.0000  0.0000  0.0000 </r>
        <r>  0.1111  0.0760  0.0738  0.0930  0.0000  0.0000  0.0000  0.0000  0.0000 </r>
       </set>
       <set comment="band 8">
        <r>  0.1014  0.1317  0.0043  0.0936  0.0000  0.0000  0.0000  0.0000  0.0000 </r>
        <r>  0.1014  0.1317  0.0043  0.0936  0.0000  0.0000  0.0000  0.0000  0.0000 </r>
       </set>
      </set>
     </set>
    </set>
   </array>
  </projected>
 </calculation>
 <structure name="finalpos" >
  <crystal>
   <varray name="basis" >
    <v>       2.18050236       0.00000000       1.25891346 </v>
    <v>       0.72683412       2.05579703       1.25891346 </v>
    <v>       0.00000000       0.00000000       2.51782692 </v>
   </varray>
   <i name="volume">     11.28658789 </i>
   <varray name="rec_basis" >
    <v>       0.45860991      -0.16214311       0.00000000 </v>
    <v>       0.00000000       0.48642934       0.00000000 </v>
    <v>      -0.22930496      -0.16214311       0.39716789 </v>
   </varray>
  </crystal>
  <varray name="positions" >
   <v>       0.87500000       0.87500000       0.87500000 </v>
   <v>       0.12500000       0.12500000       0.12500000 </v>
  </varray>
 </structure>
</modeling>
