    2    2    1    1
  0.5643294E+01  0.2517827E-09  0.2517827E-09  0.2517827E-09  0.5000000E-15
  1.000000000000000E-004
  CAR 
 r-GeO2 ENCUT convergence test           
      8    120      8
 
  0.0000000E+00  0.0000000E+00  0.0000000E+00  0.2962963E-03
    1      -12.159145   1.000000
    2        8.903319   1.000000
    3        8.903321   1.000000
    4        8.903322   1.000000
    5       15.007626   0.000000
    6       15.007629   0.000000
    7       15.007631   0.000000
    8       22.900235   0.000000
 
  0.6666667E-01 -0.3295382E-17  0.0000000E+00  0.2370370E-02
    1      -12.037934   1.000000
    2        8.134475   1.000000
    3        8.704596   1.000000
    4        8.704597   1.000000
    5       15.274432   0.000000
    6       15.274434   0.000000
    7       15.479492   0.000000
    8       23.010613   0.000000
 
  0.1333333E+00 -0.6590764E-17  0.0000000E+00  0.2370370E-02
    1      -11.675325   1.000000
    2        6.368432   1.000000
    3        8.220049   1.000000
    4        8.220050   1.000000
    5       15.930732   0.000000
    6       15.930734   0.000000
    7       16.381572   0.000000
    8       23.340004   0.000000
 
  0.2000000E+00 -0.2235735E-16  0.0000000E+00  0.2370370E-02
    1      -11.074944   1.000000
    2        4.233040   1.000000
    3        7.641693   1.000000
    4        7.641694   1.000000
    5       16.696901   0.000000
    6       16.696903   0.000000
    7       17.174806   0.000000
    8       23.861856   0.000000
 
  0.2666667E+00  0.1781357E-17  0.0000000E+00  0.2370370E-02
    1      -10.244741   1.000000
    2        2.015686   1.000000
    3        7.099277   1.000000
    4        7.099279   1.000000
    5       17.339903   0.000000
    6       17.339904   0.000000
    7       17.728853   0.000000
    8       24.494291   0.000000
 
  0.3333333E+00 -0.8131428E-17  0.0000000E+00  0.2370370E-02
    1       -9.201827   1.000000
    2       -0.138734   1.000000
    3        6.659513   1.000000
    4        6.659515   1.000000
    5       17.744880   0.000000
    6       17.744881   0.000000
    7       18.077296   0.000000
    8       25.105740   0.000000
 
  0.4000000E+00 -0.4471469E-16  0.0000000E+00  0.2370370E-02
    1       -7.994426   1.000000
    2       -2.115556   1.000000
    3        6.354611   1.000000
    4        6.354613   1.000000
    5       17.934357   0.000000
    6       17.934358   0.000000
    7       18.277910   0.000000
    8       25.556937   0.000000
 
  0.4666667E+00 -0.4454063E-16  0.0000000E+00  0.2370370E-02
    1       -6.847116   1.000000
    2       -3.655336   1.000000
    3        6.199339   1.000000
    4        6.199341   1.000000
    5       17.995935   0.000000
    6       17.995936   0.000000
    7       18.369607   0.000000
    8       25.785563   0.000000
 
  0.6666667E-01  0.6666667E-01  0.0000000E+00  0.1777778E-02
    1      -11.997535   1.000000
    2        8.332870   1.000000
    3        8.332871   1.000000
    4        8.510395   1.000000
    5       14.906367   0.000000
    6       15.726518   0.000000
    7       15.726519   0.000000
    8       23.011756   0.000000
 
  0.1333333E+00  0.6666667E-01  0.0000000E+00  0.7111111E-02
    1      -11.715445   1.000000
    2        6.957157   1.000000
    3        7.755189   1.000000
    4        8.308966   1.000000
    5       15.102343   0.000000
    6       16.500440   0.000000
    7       16.558229   0.000000
    8       23.159932   0.000000
 
  0.2000000E+00  0.6666667E-01  0.0000000E+00  0.7111111E-02
    1      -11.194265   1.000000
    2        4.965115   1.000000
    3        7.149915   1.000000
    4        7.861875   1.000000
    5       15.722679   0.000000
    6       17.335558   0.000000
    7       17.396631   0.000000
    8       23.444308   0.000000
 
  0.2666667E+00  0.6666667E-01  0.0000000E+00  0.7111111E-02
    1      -10.440373   1.000000
    2        2.794100   1.000000
    3        6.624421   1.000000
    4        7.291435   1.000000
    5       16.455616   0.000000
    6       18.013199   0.000000
    7       18.015901   0.000000
    8       23.859752   0.000000
 
  0.3333333E+00  0.6666667E-01  0.0000000E+00  0.7111111E-02
    1       -9.466947   1.000000
    2        0.630274   1.000000
    3        6.233046   1.000000
    4        6.731246   1.000000
    5       17.058591   0.000000
    6       18.409885   0.000000
    7       18.414572   0.000000
    8       24.415120   0.000000
 
  0.4000000E+00  0.6666667E-01  0.0000000E+00  0.7111111E-02
    1       -8.306858   1.000000
    2       -1.405363   1.000000
    3        6.000762   1.000000
    4        6.254638   1.000000
    5       17.455333   0.000000
    6       18.531118   0.000000
    7       18.648248   0.000000
    8       25.038588   0.000000
 
  0.4666667E+00  0.6666667E-01  0.0000000E+00  0.7111111E-02
    1       -7.085969   1.000000
    2       -3.140147   1.000000
    3        5.901116   1.000000
    4        5.936079   1.000000
    5       17.706695   0.000000
    6       18.468257   0.000000
    7       18.763866   0.000000
    8       25.536491   0.000000
 
 -0.4666667E+00  0.6666667E-01  0.0000000E+00  0.7111111E-02
    1       -6.542698   1.000000
    2       -3.813015   1.000000
    3        5.693542   1.000000
    4        6.037566   1.000000
    5       17.896523   0.000000
    6       18.310541   0.000000
    7       18.786294   0.000000
    8       25.714411   0.000000
 
 -0.4000000E+00  0.6666667E-01  0.0000000E+00  0.7111111E-02
    1       -7.480565   1.000000
    2       -2.614892   1.000000
    3        5.645733   1.000000
    4        6.296291   1.000000
    5       18.049915   0.000000
    6       18.087974   0.000000
    7       18.719601   0.000000
    8       25.513682   0.000000
 
 -0.3333333E+00  0.6666667E-01  0.0000000E+00  0.7111111E-02
    1       -8.710765   1.000000
    2       -0.745546   1.000000
    3        5.764728   1.000000
    4        6.695909   1.000000
    5       17.763261   0.000000
    6       18.115126   0.000000
    7       18.542118   0.000000
    8       25.012141   0.000000
 
 -0.2666667E+00  0.6666667E-01  0.0000000E+00  0.7111111E-02
    1       -9.814777   1.000000
    2        1.346817   1.000000
    3        6.050207   1.000000
    4        7.208580   1.000000
    5       17.269923   0.000000
    6       17.997697   0.000000
    7       18.193841   0.000000
    8       24.402377   0.000000
 
 -0.2000000E+00  0.6666667E-01  0.0000000E+00  0.7111111E-02
    1      -10.717088   1.000000
    2        3.527444   1.000000
    3        6.491663   1.000000
    4        7.785180   1.000000
    5       16.596926   0.000000
    6       17.557221   0.000000
    7       17.669527   0.000000
    8       23.860148   0.000000
 
 -0.1333333E+00  0.6666667E-01  0.0000000E+00  0.7111111E-02
    1      -11.394320   1.000000
    2        5.655787   1.000000
    3        7.065037   1.000000
    4        8.334464   1.000000
    5       15.868748   0.000000
    6       16.744443   0.000000
    7       17.023661   0.000000
    8       23.444468   0.000000
 
 -0.6666667E-01  0.6666667E-01  0.0000000E+00  0.3555556E-02
    1      -11.836250   1.000000
    2        7.400798   1.000000
    3        7.798721   1.000000
    4        8.699349   1.000000
    5       15.339992   0.000000
    6       15.892119   0.000000
    7       16.178103   0.000000
    8       23.157671   0.000000
 
  0.1333333E+00  0.1333333E+00  0.0000000E+00  0.1777778E-02
    1      -11.514251   1.000000
    2        7.124663   1.000000
    3        7.124663   1.000000
    4        7.427926   1.000000
    5       14.645918   0.000000
    6       17.372485   0.000000
    7       17.372485   0.000000
    8       22.918766   0.000000
 
  0.2000000E+00  0.1333333E+00  0.0000000E+00  0.7111111E-02
    1      -11.073638   1.000000
    2        5.575149   1.000000
    3        6.494001   1.000000
    4        7.161506   1.000000
    5       14.804119   0.000000
    6       18.288626   0.000000
    7       18.304404   0.000000
    8       22.658994   0.000000
 
  0.2666667E+00  0.1333333E+00  0.0000000E+00  0.7111111E-02
    1      -10.398753   1.000000
    2        3.579904   1.000000
    3        5.962676   1.000000
    4        6.691245   1.000000
    5       15.415472   0.000000
    6       19.010877   0.000000
    7       19.081641   0.000000
    8       22.524688   0.000000
 
  0.3333333E+00  0.1333333E+00  0.0000000E+00  0.7111111E-02
    1       -9.500154   1.000000
    2        1.492052   1.000000
    3        5.582956   1.000000
    4        6.083317   1.000000
    5       16.125899   0.000000
    6       19.487294   0.000000
    7       19.557815   0.000000
    8       22.743859   0.000000
 
  0.4000000E+00  0.1333333E+00  0.0000000E+00  0.7111111E-02
    1       -8.401778   1.000000
    2       -0.538798   1.000000
    3        5.379563   1.000000
    4        5.478415   1.000000
    5       16.679311   0.000000
    6       19.703213   0.000000
    7       19.769752   0.000000
    8       23.439173   0.000000
 
  0.4666667E+00  0.1333333E+00  0.0000000E+00  0.7111111E-02
    1       -7.180341   1.000000
    2       -2.367026   1.000000
    3        4.958544   1.000000
    4        5.360720   1.000000
    5       17.056339   0.000000
    6       19.592596   0.000000
    7       19.915121   0.000000
    8       24.433820   0.000000
 
 -0.4666667E+00  0.1333333E+00  0.0000000E+00  0.7111111E-02
    1       -6.255116   1.000000
    2       -3.537167   1.000000
    3        4.571127   1.000000
    4        5.523278   1.000000
    5       17.364131   0.000000
    6       19.325015   0.000000
    7       19.962474   0.000000
    8       25.255989   0.000000
 
 -0.4000000E+00  0.1333333E+00  0.0000000E+00  0.7111111E-02
    1       -6.795298   1.000000
    2       -2.866759   1.000000
    3        4.345198   1.000000
    4        5.854221   1.000000
    5       17.670758   0.000000
    6       18.954036   0.000000
    7       19.922588   0.000000
    8       25.357941   0.000000
 
 -0.3333333E+00  0.1333333E+00  0.0000000E+00  0.7111111E-02
    1       -8.005185   1.000000
    2       -1.158081   1.000000
    3        4.299278   1.000000
    4        6.329291   1.000000
    5       17.956131   0.000000
    6       18.469302   0.000000
    7       19.767733   0.000000
    8       24.759644   0.000000
 
 -0.2666667E+00  0.1333333E+00  0.0000000E+00  0.7111111E-02
    1       -9.157165   1.000000
    2        0.831166   1.000000
    3        4.446015   1.000000
    4        6.908021   1.000000
    5       17.832979   0.000000
    6       18.125764   0.000000
    7       19.399981   0.000000
    8       24.031668   0.000000
 
 -0.2000000E+00  0.1333333E+00  0.0000000E+00  0.7111111E-02
    1      -10.125088   1.000000
    2        2.898670   1.000000
    3        4.805682   1.000000
    4        7.521983   1.000000
    5       17.065896   0.000000
    6       18.062602   0.000000
    7       18.695689   0.000000
    8       23.603199   0.000000
 
 -0.1333333E+00  0.1333333E+00  0.0000000E+00  0.3555556E-02
    1      -10.875419   1.000000
    2        4.710604   1.000000
    3        5.559461   1.000000
    4        8.054593   1.000000
    5       16.321922   0.000000
    6       17.691765   0.000000
    7       17.721095   0.000000
    8       23.485894   0.000000
 
  0.2000000E+00  0.2000000E+00  0.0000000E+00  0.1777778E-02
    1      -10.714198   1.000000
    2        5.838194   1.000000
    3        5.838194   1.000000
    4        5.849384   1.000000
    5       14.326690   0.000000
    6       19.364318   0.000000
    7       19.364318   0.000000
    8       21.744895   0.000000
 
  0.2666667E+00  0.2000000E+00  0.0000000E+00  0.7111111E-02
    1      -10.119946   1.000000
    2        4.162627   1.000000
    3        5.284307   1.000000
    4        5.635115   1.000000
    5       14.499872   0.000000
    6       20.268190   0.000000
    7       20.297827   0.000000
    8       21.020436   0.000000
 
  0.3333333E+00  0.2000000E+00  0.0000000E+00  0.7111111E-02
    1       -9.299591   1.000000
    2        2.289940   1.000000
    3        4.887922   1.000000
    4        5.072024   1.000000
    5       15.129611   0.000000
    6       20.662230   0.000000
    7       20.932628   0.000000
    8       20.990408   0.000000
 
  0.4000000E+00  0.2000000E+00  0.0000000E+00  0.7111111E-02
    1       -8.271686   1.000000
    2        0.372617   1.000000
    3        4.378144   1.000000
    4        4.676718   1.000000
    5       15.798687   0.000000
    6       21.034734   0.000000
    7       21.191841   0.000000
    8       21.430933   0.000000
 
  0.4666667E+00  0.2000000E+00  0.0000000E+00  0.7111111E-02
    1       -7.087051   1.000000
    2       -1.446242   1.000000
    3        3.713151   1.000000
    4        4.661235   1.000000
    5       16.277346   0.000000
    6       21.116494   0.000000
    7       21.418853   0.000000
    8       22.392728   0.000000
 
 -0.4666667E+00  0.2000000E+00  0.0000000E+00  0.7111111E-02
    1       -5.975071   1.000000
    2       -2.879625   1.000000
    3        3.164948   1.000000
    4        4.839594   1.000000
    5       16.647114   0.000000
    6       20.798915   0.000000
    7       21.524246   0.000000
    8       23.860127   0.000000
 
 -0.4000000E+00  0.2000000E+00  0.0000000E+00  0.7111111E-02
    1       -5.991536   1.000000
    2       -2.844157   1.000000
    3        2.782626   1.000000
    4        5.198571   1.000000
    5       17.032779   0.000000
    6       20.307529   0.000000
    7       21.520534   0.000000
    8       24.914460   0.000000
 
 -0.3333333E+00  0.2000000E+00  0.0000000E+00  0.7111111E-02
    1       -7.106140   1.000000
    2       -1.372203   1.000000
    3        2.599151   1.000000
    4        5.711367   1.000000
    5       17.460827   0.000000
    6       19.653923   0.000000
    7       21.389545   0.000000
    8       24.582006   0.000000
 
 -0.2666667E+00  0.2000000E+00  0.0000000E+00  0.7111111E-02
    1       -8.285074   1.000000
    2        0.451153   1.000000
    3        2.659826   1.000000
    4        6.331124   1.000000
    5       17.866100   0.000000
    6       18.829938   0.000000
    7       20.944630   0.000000
    8       23.743309   0.000000
 
 -0.2000000E+00  0.2000000E+00  0.0000000E+00  0.3555556E-02
    1       -9.308181   1.000000
    2        2.100805   1.000000
    3        3.222284   1.000000
    4        6.978208   1.000000
    5       17.902205   0.000000
    6       18.114239   0.000000
    7       19.953808   0.000000
    8       23.430170   0.000000
 
  0.2666667E+00  0.2666667E+00  0.0000000E+00  0.1777778E-02
    1       -9.606904   1.000000
    2        3.940820   1.000000
    3        4.699436   1.000000
    4        4.699436   1.000000
    5       14.059217   0.000000
    6       19.770000   0.000000
    7       21.434604   0.000000
    8       21.434605   0.000000
 
  0.3333333E+00  0.2666667E+00  0.0000000E+00  0.7111111E-02
    1       -8.866877   1.000000
    2        2.585716   1.000000
    3        4.180406   1.000000
    4        4.269930   1.000000
    5       14.292304   0.000000
    6       19.023700   0.000000
    7       22.290020   0.000000
    8       22.294383   0.000000
 
  0.4000000E+00  0.2666667E+00  0.0000000E+00  0.7111111E-02
    1       -7.914923   1.000000
    2        1.004398   1.000000
    3        3.404519   1.000000
    4        4.028161   1.000000
    5       14.946152   0.000000
    6       18.987374   0.000000
    7       22.741854   0.000000
    8       22.833991   0.000000
 
  0.4666667E+00  0.2666667E+00  0.0000000E+00  0.7111111E-02
    1       -6.787036   1.000000
    2       -0.614270   1.000000
    3        2.555175   1.000000
    4        3.987988   1.000000
    5       15.532767   0.000000
    6       19.871614   0.000000
    7       22.775821   0.000000
    8       23.132135   0.000000
 
 -0.4666667E+00  0.2666667E+00  0.0000000E+00  0.7111111E-02
    1       -5.616573   1.000000
    2       -2.070045   1.000000
    3        1.810755   1.000000
    4        4.150078   1.000000
    5       15.942380   0.000000
    6       21.476724   0.000000
    7       22.460583   0.000000
    8       23.310066   0.000000
 
 -0.4000000E+00  0.2666667E+00  0.0000000E+00  0.7111111E-02
    1       -5.146328   1.000000
    2       -2.572983   1.000000
    3        1.260105   1.000000
    4        4.503112   1.000000
    5       16.348974   0.000000
    6       21.867564   0.000000
    7       22.906277   0.000000
    8       23.799430   0.000000
 
 -0.3333333E+00  0.2666667E+00  0.0000000E+00  0.7111111E-02
    1       -6.054759   1.000000
    2       -1.454544   1.000000
    3        0.974395   1.000000
    4        5.021357   1.000000
    5       16.836737   0.000000
    6       21.027609   0.000000
    7       23.070362   0.000000
    8       24.390108   0.000000
 
 -0.2666667E+00  0.2666667E+00  0.0000000E+00  0.3555556E-02
    1       -7.225570   1.000000
    2       -0.109331   1.000000
    3        1.241402   1.000000
    4        5.657800   1.000000
    5       17.379110   0.000000
    6       19.973972   0.000000
    7       22.470544   0.000000
    8       23.748323   0.000000
 
  0.3333333E+00  0.3333333E+00  0.0000000E+00  0.1777778E-02
    1       -8.207881   1.000000
    2        1.828752   1.000000
    3        3.799624   1.000000
    4        3.799624   1.000000
    5       13.937432   0.000000
    6       17.838831   0.000000
    7       23.405924   0.000000
    8       23.405925   0.000000
 
  0.4000000E+00  0.3333333E+00  0.0000000E+00  0.7111111E-02
    1       -7.334668   1.000000
    2        0.652672   1.000000
    3        3.187771   1.000000
    4        3.515047   1.000000
    5       14.263100   0.000000
    6       17.298221   0.000000
    7       24.106459   0.000000
    8       24.146062   0.000000
 
  0.4666667E+00  0.3333333E+00  0.0000000E+00  0.7111111E-02
    1       -6.274709   1.000000
    2       -0.562640   1.000000
    3        2.187798   1.000000
    4        3.434018   1.000000
    5       14.908917   0.000000
    6       17.646023   0.000000
    7       24.311133   0.000000
    8       24.548999   0.000000
 
 -0.4666667E+00  0.3333333E+00  0.0000000E+00  0.7111111E-02
    1       -5.112140   1.000000
    2       -1.720527   1.000000
    3        1.120367   1.000000
    4        3.560397   1.000000
    5       15.363897   0.000000
    6       19.063845   0.000000
    7       24.042173   0.000000
    8       24.720090   0.000000
 
 -0.4000000E+00  0.3333333E+00  0.0000000E+00  0.7111111E-02
    1       -4.325907   1.000000
    2       -2.408917   1.000000
    3        0.288635   1.000000
    4        3.885709   1.000000
    5       15.753148   0.000000
    6       21.098158   0.000000
    7       23.361809   0.000000
    8       24.745724   0.000000
 
 -0.3333333E+00  0.3333333E+00  0.0000000E+00  0.3555556E-02
    1       -4.956176   1.000000
    2       -1.813320   1.000000
    3        0.036718   1.000000
    4        4.387182   1.000000
    5       16.241058   0.000000
    6       22.325339   0.000000
    7       23.078630   0.000000
    8       24.546566   0.000000
 
  0.4000000E+00  0.4000000E+00  0.0000000E+00  0.1777778E-02
    1       -6.540614   1.000000
    2       -0.373964   1.000000
    3        3.182129   1.000000
    4        3.182129   1.000000
    5       14.037480   0.000000
    6       16.281926   0.000000
    7       25.066277   0.000000
    8       25.066278   0.000000
 
  0.4666667E+00  0.4000000E+00  0.0000000E+00  0.7111111E-02
    1       -5.554274   1.000000
    2       -1.465458   1.000000
    3        2.638291   1.000000
    4        3.051782   1.000000
    5       14.470968   0.000000
    6       15.998795   0.000000
    7       25.472796   0.000000
    8       25.556994   0.000000
 
 -0.4666667E+00  0.4000000E+00  0.0000000E+00  0.7111111E-02
    1       -4.432483   1.000000
    2       -2.455134   1.000000
    3        1.636639   1.000000
    4        3.131361   1.000000
    5       14.977079   0.000000
    6       16.873953   0.000000
    7       25.290131   0.000000
    8       25.682523   0.000000
 
 -0.4000000E+00  0.4000000E+00  0.0000000E+00  0.3555556E-02
    1       -3.656163   1.000000
    2       -2.966184   1.000000
    3        0.609814   1.000000
    4        3.415672   1.000000
    5       15.306855   0.000000
    6       18.790988   0.000000
    7       24.556545   0.000000
    8       25.462734   0.000000
 
  0.4666667E+00  0.4666667E+00  0.0000000E+00  0.1777778E-02
    1       -4.641177   1.000000
    2       -2.561537   1.000000
    3        2.868675   1.000000
    4        2.868675   1.000000
    5       14.423045   0.000000
    6       15.153272   0.000000
    7       26.067954   0.000000
    8       26.067956   0.000000
 
 -0.4666667E+00  0.4666667E+00  0.0000000E+00  0.3555556E-02
    1       -3.599608   1.000000
    2       -3.547064   1.000000
    3        2.460555   1.000000
    4        2.895780   1.000000
    5       14.805431   0.000000
    6       15.296829   0.000000
    7       26.001905   0.000000
    8       26.109597   0.000000
 
  0.2000000E+00  0.1333333E+00  0.6666667E-01  0.7111111E-02
    1      -11.353999   1.000000
    2        6.062843   1.000000
    3        6.641182   1.000000
    4        8.053301   1.000000
    5       15.251172   0.000000
    6       17.362273   0.000000
    7       17.398492   0.000000
    8       23.162366   0.000000
 
  0.2666667E+00  0.1333333E+00  0.6666667E-01  0.1422222E-01
    1      -10.755906   1.000000
    2        4.260505   1.000000
    3        5.890745   1.000000
    4        7.625642   1.000000
    5       15.848004   0.000000
    6       18.073509   0.000000
    7       18.282798   0.000000
    8       23.201850   0.000000
 
  0.3333333E+00  0.1333333E+00  0.6666667E-01  0.1422222E-01
    1       -9.929359   1.000000
    2        2.161166   1.000000
    3        5.413015   1.000000
    4        7.051866   1.000000
    5       16.593341   0.000000
    6       18.465280   0.000000
    7       19.025817   0.000000
    8       23.430789   0.000000
 
  0.4000000E+00  0.1333333E+00  0.6666667E-01  0.1422222E-01
    1       -8.891948   1.000000
    2        0.071940   1.000000
    3        5.107503   1.000000
    4        6.474295   1.000000
    5       17.223066   0.000000
    6       18.593226   0.000000
    7       19.485937   0.000000
    8       23.999129   0.000000
 
  0.4666667E+00  0.1333333E+00  0.6666667E-01  0.1422222E-01
    1       -7.692771   1.000000
    2       -1.864657   1.000000
    3        4.961605   1.000000
    4        5.992729   1.000000
    5       17.640850   0.000000
    6       18.537350   0.000000
    7       19.718493   0.000000
    8       24.787382   0.000000
 
 -0.4666667E+00  0.1333333E+00  0.6666667E-01  0.1422222E-01
    1       -6.556926   1.000000
    2       -3.378783   1.000000
    3        4.932753   1.000000
    4        5.697617   1.000000
    5       17.868309   0.000000
    6       18.425839   0.000000
    7       19.813672   0.000000
    8       25.394575   0.000000
 
  0.2666667E+00  0.2000000E+00  0.6666667E-01  0.7111111E-02
    1      -10.556196   1.000000
    2        4.652245   1.000000
    3        5.390224   1.000000
    4        6.766684   1.000000
    5       14.960210   0.000000
    6       19.066965   0.000000
    7       19.350803   0.000000
    8       22.111093   0.000000
 
  0.3333333E+00  0.2000000E+00  0.6666667E-01  0.1422222E-01
    1       -9.808355   1.000000
    2        2.927943   1.000000
    3        4.703291   1.000000
    4        6.285368   1.000000
    5       15.594092   0.000000
    6       19.541839   0.000000
    7       20.276855   0.000000
    8       21.814322   0.000000
 
  0.4000000E+00  0.2000000E+00  0.6666667E-01  0.1422222E-01
    1       -8.844260   1.000000
    2        0.956182   1.000000
    3        4.317260   1.000000
    4        5.703485   1.000000
    5       16.334403   0.000000
    6       19.713131   0.000000
    7       20.870256   0.000000
    8       22.112195   0.000000
 
  0.4666667E+00  0.2000000E+00  0.6666667E-01  0.1422222E-01
    1       -7.698198   1.000000
    2       -0.965876   1.000000
    3        4.062089   1.000000
    4        5.209210   1.000000
    5       16.897742   0.000000
    6       19.651495   0.000000
    7       21.185093   0.000000
    8       23.024754   0.000000
 
 -0.4666667E+00  0.2000000E+00  0.6666667E-01  0.1422222E-01
    1       -6.498098   1.000000
    2       -2.628330   1.000000
    3        3.832016   1.000000
    4        4.983464   1.000000
    5       17.280400   0.000000
    6       19.448911   0.000000
    7       21.327853   0.000000
    8       24.216534   0.000000
 
 -0.4000000E+00  0.2000000E+00  0.6666667E-01  0.1422222E-01
    1       -5.972447   1.000000
    2       -3.266898   1.000000
    3        3.597779   1.000000
    4        5.095001   1.000000
    5       17.606995   0.000000
    6       19.151369   0.000000
    7       21.326716   0.000000
    8       25.003552   0.000000
 
 -0.3333333E+00  0.2000000E+00  0.6666667E-01  0.1422222E-01
    1       -6.891394   1.000000
    2       -2.103211   1.000000
    3        3.450067   1.000000
    4        5.463427   1.000000
    5       17.931382   0.000000
    6       18.761465   0.000000
    7       21.203282   0.000000
    8       24.626361   0.000000
 
 -0.2666667E+00  0.2000000E+00  0.6666667E-01  0.1422222E-01
    1       -8.101667   1.000000
    2       -0.309077   1.000000
    3        3.463804   1.000000
    4        5.999838   1.000000
    5       17.997278   0.000000
    6       18.443496   0.000000
    7       20.925915   0.000000
    8       23.667783   0.000000
 
 -0.2000000E+00  0.2000000E+00  0.6666667E-01  0.1422222E-01
    1       -9.191692   1.000000
    2        1.637788   1.000000
    3        3.694428   1.000000
    4        6.621015   1.000000
    5       17.304397   0.000000
    6       18.556553   0.000000
    7       20.348922   0.000000
    8       22.994063   0.000000
 
 -0.1333333E+00  0.2000000E+00  0.6666667E-01  0.7111111E-02
    1      -10.084684   1.000000
    2        3.362585   1.000000
    3        4.366552   1.000000
    4        7.214457   1.000000
    5       16.466867   0.000000
    6       18.480841   0.000000
    7       19.386617   0.000000
    8       22.927881   0.000000
 
  0.3333333E+00  0.2666667E+00  0.6666667E-01  0.7111111E-02
    1       -9.452759   1.000000
    2        3.201524   1.000000
    3        4.278668   1.000000
    4        5.237887   1.000000
    5       14.705218   0.000000
    6       20.221779   0.000000
    7       20.917645   0.000000
    8       21.441495   0.000000
 
  0.4000000E+00  0.2666667E+00  0.6666667E-01  0.1422222E-01
    1       -8.566184   1.000000
    2        1.658322   1.000000
    3        3.616904   1.000000
    4        4.735648   1.000000
    5       15.390624   0.000000
    6       19.983343   0.000000
    7       21.210727   0.000000
    8       22.334066   0.000000
 
  0.4666667E+00  0.2666667E+00  0.6666667E-01  0.1422222E-01
    1       -7.485973   1.000000
    2       -0.082901   1.000000
    3        3.128646   1.000000
    4        4.300462   1.000000
    5       16.092633   0.000000
    6       20.495586   0.000000
    7       21.255360   0.000000
    8       22.887247   0.000000
 
 -0.4666667E+00  0.2666667E+00  0.6666667E-01  0.1422222E-01
    1       -6.291335   1.000000
    2       -1.734525   1.000000
    3        2.620483   1.000000
    4        4.175313   1.000000
    5       16.570668   0.000000
    6       20.973623   0.000000
    7       21.826670   0.000000
    8       23.192568   0.000000
 
 -0.4000000E+00  0.2666667E+00  0.6666667E-01  0.1422222E-01
    1       -5.404424   1.000000
    2       -2.797470   1.000000
    3        2.157700   1.000000
    4        4.355708   1.000000
    5       16.956262   0.000000
    6       20.658309   0.000000
    7       22.714443   0.000000
    8       23.853726   0.000000
 
 -0.3333333E+00  0.2666667E+00  0.6666667E-01  0.1422222E-01
    1       -5.943323   1.000000
    2       -2.129373   1.000000
    3        1.844355   1.000000
    4        4.764533   1.000000
    5       17.381019   0.000000
    6       20.133640   0.000000
    7       22.694915   0.000000
    8       24.431032   0.000000
 
 -0.2666667E+00  0.2666667E+00  0.6666667E-01  0.1422222E-01
    1       -7.118691   1.000000
    2       -0.555557   1.000000
    3        1.765492   1.000000
    4        5.336634   1.000000
    5       17.858117   0.000000
    6       19.354071   0.000000
    7       22.449400   0.000000
    8       23.575476   0.000000
 
 -0.2000000E+00  0.2666667E+00  0.6666667E-01  0.7111111E-02
    1       -8.242940   1.000000
    2        0.941430   1.000000
    3        2.205223   1.000000
    4        5.994668   1.000000
    5       18.302956   0.000000
    6       18.336882   0.000000
    7       21.694773   0.000000
    8       22.882210   0.000000
 
  0.4000000E+00  0.3333333E+00  0.6666667E-01  0.7111111E-02
    1       -8.060475   1.000000
    2        1.540524   1.000000
    3        3.404155   1.000000
    4        3.904490   1.000000
    5       14.586494   0.000000
    6       18.356244   0.000000
    7       22.765719   0.000000
    8       23.426910   0.000000
 
  0.4666667E+00  0.3333333E+00  0.6666667E-01  0.1422222E-01
    1       -7.053587   1.000000
    2        0.264356   1.000000
    3        2.608709   1.000000
    4        3.529266   1.000000
    5       15.324409   0.000000
    6       18.411849   0.000000
    7       22.904897   0.000000
    8       24.150724   0.000000
 
 -0.4666667E+00  0.3333333E+00  0.6666667E-01  0.1422222E-01
    1       -5.899709   1.000000
    2       -1.091541   1.000000
    3        1.724464   1.000000
    4        3.458211   1.000000
    5       15.928256   0.000000
    6       19.464841   0.000000
    7       22.783422   0.000000
    8       24.423290   0.000000
 