PROCAR lm decomposed
# of k-points:  120         # of bands:    8         # of ions:    2

 k-point     1 :    0.00000000 0.00000000 0.00000000     weight = 0.00029630

band     1 # energy  -12.15914454 # occ.  2.00000000
 
ion      s     py     pz     px    dxy    dyz    dz2    dxz  x2-y2    tot
    1  0.287  0.000  0.000  0.000  0.000  0.000  0.000  0.000  0.000  0.287
    2  0.287  0.000  0.000  0.000  0.000  0.000  0.000  0.000  0.000  0.287
tot    0.575  0.000  0.000  0.000  0.000  0.000  0.000  0.000  0.000  0.575
 
band     2 # energy    8.90331930 # occ.  2.00000000
 
ion      s     py     pz     px    dxy    dyz    dz2    dxz  x2-y2    tot
    1  0.000  0.199  0.077  0.102  0.000  0.000  0.000  0.000  0.000  0.377
    2  0.000  0.199  0.077  0.102  0.000  0.000  0.000  0.000  0.000  0.377
tot    0.000  0.397  0.154  0.204  0.000  0.000  0.000  0.000  0.000  0.755
 
band     3 # energy    8.90332057 # occ.  2.00000000
 
ion      s     py     pz     px    dxy    dyz    dz2    dxz  x2-y2    tot
    1  0.000  0.081  0.292  0.005  0.000  0.000  0.000  0.000  0.000  0.377
    2  0.000  0.081  0.292  0.005  0.000  0.000  0.000  0.000  0.000  0.377
tot    0.000  0.161  0.583  0.010  0.000  0.000  0.000  0.000  0.000  0.755
 
band     4 # energy    8.90332176 # occ.  2.00000000
 
ion      s     py     pz     px    dxy    dyz    dz2    dxz  x2-y2    tot
    1  0.000  0.098  0.009  0.270  0.000  0.000  0.000  0.000  0.000  0.377
    2  0.000  0.098  0.009  0.270  0.000  0.000  0.000  0.000  0.000  0.377
tot    0.000  0.196  0.018  0.540  0.000  0.000  0.000  0.000  0.000  0.755
 
band     5 # energy   15.00762615 # occ.  0.00000000
 
ion      s     py     pz     px    dxy    dyz    dz2    dxz  x2-y2    tot
    1  0.000  0.030  0.000  0.270  0.000  0.000  0.000  0.000  0.000  0.300
    2  0.000  0.030  0.000  0.270  0.000  0.000  0.000  0.000  0.000  0.300
tot    0.000  0.060  0.001  0.539  0.000  0.000  0.000  0.000  0.000  0.600
 
band     6 # energy   15.00762884 # occ.  0.00000000
 
ion      s     py     pz     px    dxy    dyz    dz2    dxz  x2-y2    tot
    1  0.000  0.001  0.299  0.000  0.000  0.000  0.000  0.000  0.000  0.300
    2  0.000  0.001  0.299  0.000  0.000  0.000  0.000  0.000  0.000  0.300
tot    0.000  0.002  0.597  0.000  0.000  0.000  0.000  0.000  0.000  0.600
 
band     7 # energy   15.00763071 # occ.  0.00000000
 
ion      s     py     pz     px    dxy    dyz    dz2    dxz  x2-y2    tot
    1  0.000  0.269  0.001  0.030  0.000  0.000  0.000  0.000  0.000  0.300
    2  0.000  0.269  0.001  0.030  0.000  0.000  0.000  0.000  0.000  0.300
tot    0.000  0.537  0.002  0.061  0.000  0.000  0.000  0.000  0.000  0.600
 
band     8 # energy   22.90023513 # occ.  0.00000000
 
ion      s     py     pz     px    dxy    dyz    dz2    dxz  x2-y2    tot
    1  0.409  0.000  0.000  0.000  0.000  0.000  0.000  0.000  0.000  0.409
    2  0.409  0.000  0.000  0.000  0.000  0.000  0.000  0.000  0.000  0.409
tot    0.817  0.000  0.000  0.000  0.000  0.000  0.000  0.000  0.000  0.817
 

 k-point     2 :    0.06666667-0.00000000 0.00000000     weight = 0.00237037

band     1 # energy  -12.03793371 # occ.  2.00000000
 
ion      s     py     pz     px    dxy    dyz    dz2    dxz  x2-y2    tot
    1  0.286  0.000  0.000  0.001  0.000  0.000  0.000  0.000  0.000  0.288
    2  0.286  0.000  0.000  0.001  0.000  0.000  0.000  0.000  0.000  0.288
tot    0.572  0.000  0.000  0.003  0.000  0.000  0.000  0.000  0.000  0.576
 
band     2 # energy    8.13447459 # occ.  2.00000000
 
ion      s     py     pz     px    dxy    dyz    dz2    dxz  x2-y2    tot
    1  0.011  0.040  0.000  0.316  0.000  0.000  0.000  0.000  0.000  0.367
    2  0.011  0.040  0.000  0.316  0.000  0.000  0.000  0.000  0.000  0.367
tot    0.022  0.079  0.000  0.633  0.000  0.000  0.000  0.000  0.000  0.734
 
band     3 # energy    8.70459640 # occ.  2.00000000
 
ion      s     py     pz     px    dxy    dyz    dz2    dxz  x2-y2    tot
    1  0.000  0.271  0.070  0.034  0.000  0.000  0.000  0.000  0.000  0.375
    2  0.000  0.271  0.070  0.034  0.000  0.000  0.000  0.000  0.000  0.375
tot    0.000  0.541  0.141  0.068  0.000  0.000  0.000  0.000  0.000  0.750
 
band     4 # energy    8.70459750 # occ.  2.00000000
 
ion      s     py     pz     px    dxy    dyz    dz2    dxz  x2-y2    tot
    1  0.000  0.062  0.305  0.008  0.000  0.000  0.000  0.000  0.000  0.375
    2  0.000  0.062  0.305  0.008  0.000  0.000  0.000  0.000  0.000  0.375
tot    0.000  0.125  0.609  0.016  0.000  0.000  0.000  0.000  0.000  0.750
 
band     5 # energy   15.27443178 # occ.  0.00000000
 
ion      s     py     pz     px    dxy    dyz    dz2    dxz  x2-y2    tot
    1  0.000  0.001  0.303  0.000  0.000  0.000  0.000  0.000  0.000  0.303
    2  0.000  0.001  0.303  0.000  0.000  0.000  0.000  0.000  0.000  0.303
tot    0.000  0.001  0.605  0.000  0.000  0.000  0.000  0.000  0.000  0.606
 
band     6 # energy   15.27443363 # occ.  0.00000000
 
ion      s     py     pz     px    dxy    dyz    dz2    dxz  x2-y2    tot
    1  0.000  0.269  0.001  0.034  0.000  0.000  0.000  0.000  0.000  0.303
    2  0.000  0.269  0.001  0.034  0.000  0.000  0.000  0.000  0.000  0.303
tot    0.000  0.538  0.001  0.067  0.000  0.000  0.000  0.000  0.000  0.606
 
band     7 # energy   15.47949172 # occ.  0.00000000
 
ion      s     py     pz     px    dxy    dyz    dz2    dxz  x2-y2    tot
    1  0.008  0.033  0.000  0.265  0.000  0.000  0.000  0.000  0.000  0.306
    2  0.008  0.033  0.000  0.265  0.000  0.000  0.000  0.000  0.000  0.306
tot    0.016  0.066  0.000  0.530  0.000  0.000  0.000  0.000  0.000  0.613
 
band     8 # energy   23.01061264 # occ.  0.00000000
 
ion      s     py     pz     px    dxy    dyz    dz2    dxz  x2-y2    tot
    1  0.391  0.002  0.000  0.015  0.000  0.000  0.000  0.000  0.000  0.407
    2  0.391  0.002  0.000  0.015  0.000  0.000  0.000  0.000  0.000  0.407
tot    0.782  0.004  0.000  0.029  0.000  0.000  0.000  0.000  0.000  0.815
 

 k-point     3 :    0.13333333-0.00000000 0.00000000     weight = 0.00237037

band     1 # energy  -11.67532519 # occ.  2.00000000
 
ion      s     py     pz     px    dxy    dyz    dz2    dxz  x2-y2    tot
    1  0.283  0.001  0.000  0.006  0.000  0.000  0.000  0.000  0.000  0.289
    2  0.283  0.001  0.000  0.006  0.000  0.000  0.000  0.000  0.000  0.289
tot    0.566  0.001  0.000  0.012  0.000  0.000  0.000  0.000  0.000  0.579
 
band     2 # energy    6.36843249 # occ.  2.00000000
 
ion      s     py     pz     px    dxy    dyz    dz2    dxz  x2-y2    tot
    1  0.034  0.035  0.000  0.281  0.000  0.000  0.000  0.000  0.000  0.351
    2  0.034  0.035  0.000  0.281  0.000  0.000  0.000  0.000  0.000  0.351
tot    0.069  0.070  0.000  0.562  0.000  0.000  0.000  0.000  0.000  0.701
 
band     3 # energy    8.22004902 # occ.  2.00000000
 
ion      s     py     pz     px    dxy    dyz    dz2    dxz  x2-y2    tot
    1  0.000  0.281  0.054  0.035  0.000  0.000  0.000  0.000  0.000  0.370
    2  0.000  0.281  0.054  0.035  0.000  0.000  0.000  0.000  0.000  0.370
tot    0.000  0.562  0.108  0.070  0.000  0.000  0.000  0.000  0.000  0.740
 
band     4 # energy    8.22005013 # occ.  2.00000000
 
ion      s     py     pz     px    dxy    dyz    dz2    dxz  x2-y2    tot
    1  0.000  0.048  0.316  0.006  0.000  0.000  0.000  0.000  0.000  0.370
    2  0.000  0.048  0.316  0.006  0.000  0.000  0.000  0.000  0.000  0.370
tot    0.000  0.096  0.632  0.012  0.000  0.000  0.000  0.000  0.000  0.740
 
band     5 # energy   15.93073215 # occ.  0.00000000
 
ion      s     py     pz     px    dxy    dyz    dz2    dxz  x2-y2    tot
    1  0.000  0.000  0.309  0.000  0.000  0.000  0.000  0.000  0.000  0.309
    2  0.000  0.000  0.309  0.000  0.000  0.000  0.000  0.000  0.000  0.309
tot    0.000  0.000  0.618  0.000  0.000  0.000  0.000  0.000  0.000  0.618
 
band     6 # energy   15.93073397 # occ.  0.00000000
 
ion      s     py     pz     px    dxy    dyz    dz2    dxz  x2-y2    tot
    1  0.000  0.275  0.000  0.034  0.000  0.000  0.000  0.000  0.000  0.309
    2  0.000  0.275  0.000  0.034  0.000  0.000  0.000  0.000  0.000  0.309
tot    0.000  0.549  0.000  0.069  0.000  0.000  0.000  0.000  0.000  0.618
 
band     7 # energy   16.38157199 # occ.  0.00000000
 
ion      s     py     pz     px    dxy    dyz    dz2    dxz  x2-y2    tot
    1  0.041  0.030  0.000  0.241  0.000  0.000  0.000  0.000  0.000  0.313
    2  0.041  0.030  0.000  0.241  0.000  0.000  0.000  0.000  0.000  0.313
tot    0.083  0.060  0.000  0.482  0.000  0.000  0.000  0.000  0.000  0.625
 
band     8 # energy   23.34000362 # occ.  0.00000000
 
ion      s     py     pz     px    dxy    dyz    dz2    dxz  x2-y2    tot
    1  0.338  0.007  0.000  0.058  0.000  0.000  0.000  0.000  0.000  0.403
    2  0.338  0.007  0.000  0.058  0.000  0.000  0.000  0.000  0.000  0.403
tot    0.676  0.014  0.000  0.115  0.000  0.000  0.000  0.000  0.000  0.806
 

 k-point     4 :    0.20000000-0.00000000 0.00000000     weight = 0.00237037

band     1 # energy  -11.07494370 # occ.  2.00000000
 
ion      s     py     pz     px    dxy    dyz    dz2    dxz  x2-y2    tot
    1  0.278  0.002  0.000  0.013  0.000  0.000  0.000  0.000  0.000  0.292
    2  0.278  0.002  0.000  0.013  0.000  0.000  0.000  0.000  0.000  0.292
tot    0.555  0.003  0.000  0.026  0.000  0.000  0.000  0.000  0.000  0.584
 
band     2 # energy    4.23304042 # occ.  2.00000000
 
ion      s     py     pz     px    dxy    dyz    dz2    dxz  x2-y2    tot
    1  0.060  0.031  0.000  0.246  0.000  0.000  0.000  0.000  0.000  0.337
    2  0.060  0.031  0.000  0.246  0.000  0.000  0.000  0.000  0.000  0.337
tot    0.120  0.061  0.000  0.492  0.000  0.000  0.000  0.000  0.000  0.673
 
band     3 # energy    7.64169321 # occ.  2.00000000
 
ion      s     py     pz     px    dxy    dyz    dz2    dxz  x2-y2    tot
    1  0.000  0.292  0.038  0.037  0.000  0.000  0.000  0.000  0.000  0.367
    2  0.000  0.292  0.038  0.037  0.000  0.000  0.000  0.000  0.000  0.367
tot    0.000  0.584  0.076  0.073  0.000  0.000  0.000  0.000  0.000  0.734
 
band     4 # energy    7.64169438 # occ.  2.00000000
 
ion      s     py     pz     px    dxy    dyz    dz2    dxz  x2-y2    tot
    1  0.000  0.034  0.329  0.004  0.000  0.000  0.000  0.000  0.000  0.367
    2  0.000  0.034  0.329  0.004  0.000  0.000  0.000  0.000  0.000  0.367
tot    0.000  0.068  0.657  0.008  0.000  0.000  0.000  0.000  0.000  0.734
 
band     5 # energy   16.69690087 # occ.  0.00000000
 
ion      s     py     pz     px    dxy    dyz    dz2    dxz  x2-y2    tot
    1  0.000  0.000  0.311  0.000  0.000  0.000  0.000  0.000  0.000  0.311
    2  0.000  0.000  0.311  0.000  0.000  0.000  0.000  0.000  0.000  0.311
tot    0.000  0.000  0.622  0.000  0.000  0.000  0.000  0.000  0.000  0.622
 
band     6 # energy   16.69690255 # occ.  0.00000000
 
ion      s     py     pz     px    dxy    dyz    dz2    dxz  x2-y2    tot
    1  0.000  0.276  0.000  0.035  0.000  0.000  0.000  0.000  0.000  0.311
    2  0.000  0.276  0.000  0.035  0.000  0.000  0.000  0.000  0.000  0.311
tot    0.000  0.553  0.000  0.069  0.000  0.000  0.000  0.000  0.000  0.622
 
band     7 # energy   17.17480623 # occ.  0.00000000
 
ion      s     py     pz     px    dxy    dyz    dz2    dxz  x2-y2    tot
    1  0.101  0.024  0.000  0.189  0.000  0.000  0.000  0.000  0.000  0.314
    2  0.101  0.024  0.000  0.189  0.000  0.000  0.000  0.000  0.000  0.314
tot    0.202  0.047  0.000  0.379  0.000  0.000  0.000  0.000  0.000  0.629
 
band     8 # energy   23.86185603 # occ.  0.00000000
 
ion      s     py     pz     px    dxy    dyz    dz2    dxz  x2-y2    tot
    1  0.256  0.015  0.000  0.121  0.000  0.000  0.000  0.000  0.000  0.393
    2  0.256  0.015  0.000  0.121  0.000  0.000  0.000  0.000  0.000  0.393
tot    0.513  0.030  0.000  0.242  0.000  0.000  0.000  0.000  0.000  0.785
 

 k-point     5 :    0.26666667 0.00000000 0.00000000     weight = 0.00237037

band     1 # energy  -10.24474140 # occ.  2.00000000
 
ion      s     py     pz     px    dxy    dyz    dz2    dxz  x2-y2    tot
    1  0.271  0.003  0.000  0.022  0.000  0.000  0.000  0.000  0.000  0.296
    2  0.271  0.003  0.000  0.022  0.000  0.000  0.000  0.000  0.000  0.296
tot    0.543  0.006  0.000  0.044  0.000  0.000  0.000  0.000  0.000  0.592
 
band     2 # energy    2.01568632 # occ.  2.00000000
 
ion      s     py     pz     px    dxy    dyz    dz2    dxz  x2-y2    tot
    1  0.084  0.027  0.000  0.214  0.000  0.000  0.000  0.000  0.000  0.325
    2  0.084  0.027  0.000  0.214  0.000  0.000  0.000  0.000  0.000  0.325
tot    0.168  0.053  0.000  0.428  0.000  0.000  0.000  0.000  0.000  0.649
 
band     3 # energy    7.09927736 # occ.  2.00000000
 
ion      s     py     pz     px    dxy    dyz    dz2    dxz  x2-y2    tot
    1  0.000  0.302  0.025  0.038  0.000  0.000  0.000  0.000  0.000  0.365
    2  0.000  0.302  0.025  0.038  0.000  0.000  0.000  0.000  0.000  0.365
tot    0.000  0.604  0.051  0.076  0.000  0.000  0.000  0.000  0.000  0.731
 
band     4 # energy    7.09927864 # occ.  2.00000000
 
ion      s     py     pz     px    dxy    dyz    dz2    dxz  x2-y2    tot
    1  0.000  0.023  0.340  0.003  0.000  0.000  0.000  0.000  0.000  0.365
    2  0.000  0.023  0.340  0.003  0.000  0.000  0.000  0.000  0.000  0.365
tot    0.000  0.045  0.680  0.006  0.000  0.000  0.000  0.000  0.000  0.731
 
band     5 # energy   17.33990260 # occ.  0.00000000
 
ion      s     py     pz     px    dxy    dyz    dz2    dxz  x2-y2    tot
    1  0.000  0.000  0.305  0.000  0.000  0.000  0.000  0.000  0.000  0.305
    2  0.000  0.000  0.305  0.000  0.000  0.000  0.000  0.000  0.000  0.305
tot    0.000  0.000  0.609  0.000  0.000  0.000  0.000  0.000  0.000  0.610
 
band     6 # energy   17.33990399 # occ.  0.00000000
 
ion      s     py     pz     px    dxy    dyz    dz2    dxz  x2-y2    tot
    1  0.000  0.271  0.000  0.034  0.000  0.000  0.000  0.000  0.000  0.305
    2  0.000  0.271  0.000  0.034  0.000  0.000  0.000  0.000  0.000  0.305
tot    0.000  0.542  0.000  0.068  0.000  0.000  0.000  0.000  0.000  0.610
 
band     7 # energy   17.72885325 # occ.  0.00000000
 
ion      s     py     pz     px    dxy    dyz    dz2    dxz  x2-y2    tot
    1  0.170  0.016  0.000  0.129  0.000  0.000  0.000  0.000  0.000  0.315
    2  0.170  0.016  0.000  0.129  0.000  0.000  0.000  0.000  0.000  0.315
tot    0.340  0.032  0.000  0.257  0.000  0.000  0.000  0.000  0.000  0.629
 
band     8 # energy   24.49429111 # occ.  0.00000000
 
ion      s     py     pz     px    dxy    dyz    dz2    dxz  x2-y2    tot
    1  0.164  0.023  0.000  0.186  0.000  0.000  0.000  0.000  0.000  0.373
    2  0.164  0.023  0.000  0.186  0.000  0.000  0.000  0.000  0.000  0.373
tot    0.329  0.046  0.000  0.372  0.000  0.000  0.000  0.000  0.000  0.747
 

 k-point     6 :    0.33333333-0.00000000 0.00000000     weight = 0.00237037

band     1 # energy   -9.20182666 # occ.  2.00000000
 
ion      s     py     pz     px    dxy    dyz    dz2    dxz  x2-y2    tot
    1  0.266  0.004  0.000  0.032  0.000  0.000  0.000  0.000  0.000  0.302
    2  0.266  0.004  0.000  0.032  0.000  0.000  0.000  0.000  0.000  0.302
tot    0.531  0.008  0.000  0.064  0.000  0.000  0.000  0.000  0.000  0.603
 
band     2 # energy   -0.13873425 # occ.  2.00000000
 
ion      s     py     pz     px    dxy    dyz    dz2    dxz  x2-y2    tot
    1  0.103  0.023  0.000  0.187  0.000  0.000  0.000  0.000  0.000  0.314
    2  0.103  0.023  0.000  0.187  0.000  0.000  0.000  0.000  0.000  0.314
tot    0.207  0.047  0.000  0.374  0.000  0.000  0.000  0.000  0.000  0.627
 
band     3 # energy    6.65951349 # occ.  2.00000000
 
ion      s     py     pz     px    dxy    dyz    dz2    dxz  x2-y2    tot
    1  0.000  0.308  0.018  0.039  0.000  0.000  0.000  0.000  0.000  0.365
    2  0.000  0.308  0.018  0.039  0.000  0.000  0.000  0.000  0.000  0.365
tot    0.000  0.617  0.036  0.077  0.000  0.000  0.000  0.000  0.000  0.730
 
band     4 # energy    6.65951490 # occ.  2.00000000
 
ion      s     py     pz     px    dxy    dyz    dz2    dxz  x2-y2    tot
    1  0.000  0.016  0.347  0.002  0.000  0.000  0.000  0.000  0.000  0.365
    2  0.000  0.016  0.347  0.002  0.000  0.000  0.000  0.000  0.000  0.365
tot    0.000  0.032  0.694  0.004  0.000  0.000  0.000  0.000  0.000  0.730
 
band     5 # energy   17.74487959 # occ.  0.00000000
 
ion      s     py     pz     px    dxy    dyz    dz2    dxz  x2-y2    tot
    1  0.000  0.002  0.290  0.000  0.000  0.000  0.000  0.000  0.000  0.292
    2  0.000  0.002  0.290  0.000  0.000  0.000  0.000  0.000  0.000  0.292
tot    0.000  0.003  0.581  0.000  0.000  0.000  0.000  0.000  0.000  0.584
 
band     6 # energy   17.74488070 # occ.  0.00000000
 
ion      s     py     pz     px    dxy    dyz    dz2    dxz  x2-y2    tot
    1  0.000  0.258  0.002  0.032  0.000  0.000  0.000  0.000  0.000  0.292
    2  0.000  0.258  0.002  0.032  0.000  0.000  0.000  0.000  0.000  0.292
tot    0.000  0.516  0.003  0.065  0.000  0.000  0.000  0.000  0.000  0.584
 
band     7 # energy   18.07729552 # occ.  0.00000000
 
ion      s     py     pz     px    dxy    dyz    dz2    dxz  x2-y2    tot
    1  0.229  0.010  0.000  0.077  0.000  0.000  0.000  0.000  0.000  0.315
    2  0.229  0.010  0.000  0.077  0.000  0.000  0.000  0.000  0.000  0.315
tot    0.458  0.019  0.000  0.153  0.000  0.000  0.000  0.000  0.000  0.631
 
band     8 # energy   25.10574000 # occ.  0.00000000
 
ion      s     py     pz     px    dxy    dyz    dz2    dxz  x2-y2    tot
    1  0.084  0.029  0.000  0.233  0.000  0.000  0.000  0.000  0.000  0.346
    2  0.084  0.029  0.000  0.233  0.000  0.000  0.000  0.000  0.000  0.346
tot    0.168  0.058  0.000  0.465  0.000  0.000  0.000  0.000  0.000  0.692
 

 k-point     7 :    0.40000000-0.00000000 0.00000000     weight = 0.00237037

band     1 # energy   -7.99442634 # occ.  2.00000000
 
ion      s     py     pz     px    dxy    dyz    dz2    dxz  x2-y2    tot
    1  0.266  0.005  0.000  0.040  0.000  0.000  0.000  0.000  0.000  0.310
    2  0.266  0.005  0.000  0.040  0.000  0.000  0.000  0.000  0.000  0.310
tot    0.531  0.010  0.000  0.080  0.000  0.000  0.000  0.000  0.000  0.621
 
band     2 # energy   -2.11555649 # occ.  2.00000000
 
ion      s     py     pz     px    dxy    dyz    dz2    dxz  x2-y2    tot
    1  0.113  0.021  0.000  0.168  0.000  0.000  0.000  0.000  0.000  0.302
    2  0.113  0.021  0.000  0.168  0.000  0.000  0.000  0.000  0.000  0.302
tot    0.225  0.042  0.000  0.336  0.000  0.000  0.000  0.000  0.000  0.604
 
band     3 # energy    6.35461119 # occ.  2.00000000
 
ion      s     py     pz     px    dxy    dyz    dz2    dxz  x2-y2    tot
    1  0.000  0.312  0.014  0.039  0.000  0.000  0.000  0.000  0.000  0.365
    2  0.000  0.312  0.014  0.039  0.000  0.000  0.000  0.000  0.000  0.365
tot    0.000  0.624  0.028  0.078  0.000  0.000  0.000  0.000  0.000  0.730
 
band     4 # energy    6.35461270 # occ.  2.00000000
 
ion      s     py     pz     px    dxy    dyz    dz2    dxz  x2-y2    tot
    1  0.000  0.013  0.351  0.002  0.000  0.000  0.000  0.000  0.000  0.365
    2  0.000  0.013  0.351  0.002  0.000  0.000  0.000  0.000  0.000  0.365
tot    0.000  0.025  0.702  0.003  0.000  0.000  0.000  0.000  0.000  0.730
 
band     5 # energy   17.93435679 # occ.  0.00000000
 
ion      s     py     pz     px    dxy    dyz    dz2    dxz  x2-y2    tot
    1  0.000  0.007  0.271  0.001  0.000  0.000  0.000  0.000  0.000  0.278
    2  0.000  0.007  0.271  0.001  0.000  0.000  0.000  0.000  0.000  0.278
tot    0.000  0.014  0.541  0.002  0.000  0.000  0.000  0.000  0.000  0.557
 
band     6 # energy   17.93435767 # occ.  0.00000000
 
ion      s     py     pz     px    dxy    dyz    dz2    dxz  x2-y2    tot
    1  0.000  0.240  0.008  0.030  0.000  0.000  0.000  0.000  0.000  0.278
    2  0.000  0.240  0.008  0.030  0.000  0.000  0.000  0.000  0.000  0.278
tot    0.000  0.481  0.016  0.060  0.000  0.000  0.000  0.000  0.000  0.557
 
band     7 # energy   18.27790987 # occ.  0.00000000
 
ion      s     py     pz     px    dxy    dyz    dz2    dxz  x2-y2    tot
    1  0.270  0.005  0.000  0.041  0.000  0.000  0.000  0.000  0.000  0.316
    2  0.270  0.005  0.000  0.041  0.000  0.000  0.000  0.000  0.000  0.316
tot    0.540  0.010  0.000  0.083  0.000  0.000  0.000  0.000  0.000  0.632
 
band     8 # energy   25.55693651 # occ.  0.00000000
 
ion      s     py     pz     px    dxy    dyz    dz2    dxz  x2-y2    tot
    1  0.031  0.032  0.000  0.253  0.000  0.000  0.000  0.000  0.000  0.315
    2  0.031  0.032  0.000  0.253  0.000  0.000  0.000  0.000  0.000  0.315
tot    0.061  0.063  0.000  0.505  0.000  0.000  0.000  0.000  0.000  0.630
 

 k-point     8 :    0.46666667-0.00000000 0.00000000     weight = 0.00237037

band     1 # energy   -6.84711649 # occ.  2.00000000
 
ion      s     py     pz     px    dxy    dyz    dz2    dxz  x2-y2    tot
    1  0.287  0.004  0.000  0.035  0.000  0.000  0.000  0.000  0.000  0.326
    2  0.287  0.004  0.000  0.035  0.000  0.000  0.000  0.000  0.000  0.326
tot    0.573  0.009  0.000  0.069  0.000  0.000  0.000  0.000  0.000  0.651
 
band     2 # energy   -3.65533604 # occ.  2.00000000
 
ion      s     py     pz     px    dxy    dyz    dz2    dxz  x2-y2    tot
    1  0.096  0.021  0.000  0.168  0.000  0.000  0.000  0.000  0.000  0.285
    2  0.096  0.021  0.000  0.168  0.000  0.000  0.000  0.000  0.000  0.285
tot    0.193  0.042  0.000  0.336  0.000  0.000  0.000  0.000  0.000  0.570
 
band     3 # energy    6.19933896 # occ.  2.00000000
 
ion      s     py     pz     px    dxy    dyz    dz2    dxz  x2-y2    tot
    1  0.000  0.314  0.012  0.039  0.000  0.000  0.000  0.000  0.000  0.365
    2  0.000  0.314  0.012  0.039  0.000  0.000  0.000  0.000  0.000  0.365
tot    0.000  0.628  0.025  0.078  0.000  0.000  0.000  0.000  0.000  0.731
 
band     4 # energy    6.19934053 # occ.  2.00000000
 
ion      s     py     pz     px    dxy    dyz    dz2    dxz  x2-y2    tot
    1  0.000  0.011  0.353  0.001  0.000  0.000  0.000  0.000  0.000  0.365
    2  0.000  0.011  0.353  0.001  0.000  0.000  0.000  0.000  0.000  0.365
tot    0.000  0.022  0.706  0.003  0.000  0.000  0.000  0.000  0.000  0.731
 
band     5 # energy   17.99593514 # occ.  0.00000000
 
ion      s     py     pz     px    dxy    dyz    dz2    dxz  x2-y2    tot
    1  0.000  0.013  0.255  0.002  0.000  0.000  0.000  0.000  0.000  0.270
    2  0.000  0.013  0.255  0.002  0.000  0.000  0.000  0.000  0.000  0.270
tot    0.000  0.026  0.511  0.003  0.000  0.000  0.000  0.000  0.000  0.540
 
band     6 # energy   17.99593593 # occ.  0.00000000
 
ion      s     py     pz     px    dxy    dyz    dz2    dxz  x2-y2    tot
    1  0.000  0.227  0.015  0.028  0.000  0.000  0.000  0.000  0.000  0.270
    2  0.000  0.227  0.015  0.028  0.000  0.000  0.000  0.000  0.000  0.270
tot    0.000  0.454  0.030  0.057  0.000  0.000  0.000  0.000  0.000  0.540
 
band     7 # energy   18.36960698 # occ.  0.00000000
 
ion      s     py     pz     px    dxy    dyz    dz2    dxz  x2-y2    tot
    1  0.290  0.003  0.000  0.024  0.000  0.000  0.000  0.000  0.000  0.317
    2  0.290  0.003  0.000  0.024  0.000  0.000  0.000  0.000  0.000  0.317
tot    0.580  0.006  0.000  0.048  0.000  0.000  0.000  0.000  0.000  0.633
 
band     8 # energy   25.78556262 # occ.  0.00000000
 
ion      s     py     pz     px    dxy    dyz    dz2    dxz  x2-y2    tot
    1  0.007  0.032  0.000  0.255  0.000  0.000  0.000  0.000  0.000  0.294
    2  0.007  0.032  0.000  0.255  0.000  0.000  0.000  0.000  0.000  0.294
tot    0.013  0.064  0.000  0.510  0.000  0.000  0.000  0.000  0.000  0.587
 

 k-point     9 :    0.06666667 0.06666667 0.00000000     weight = 0.00177778

band     1 # energy  -11.99753498 # occ.  2.00000000
 
ion      s     py     pz     px    dxy    dyz    dz2    dxz  x2-y2    tot
    1  0.286  0.001  0.000  0.001  0.000  0.000  0.000  0.000  0.000  0.288
    2  0.286  0.001  0.000  0.001  0.000  0.000  0.000  0.000  0.000  0.288
tot    0.571  0.001  0.000  0.003  0.000  0.000  0.000  0.000  0.000  0.576
 
band     2 # energy    8.33286983 # occ.  2.00000000
 
ion      s     py     pz     px    dxy    dyz    dz2    dxz  x2-y2    tot
    1  0.000  0.000  0.368  0.000  0.000  0.000  0.000  0.000  0.000  0.368
    2  0.000  0.000  0.368  0.000  0.000  0.000  0.000  0.000  0.000  0.368
tot    0.000  0.000  0.736  0.000  0.000  0.000  0.000  0.000  0.000  0.736
 
band     3 # energy    8.33287064 # occ.  2.00000000
 
ion      s     py     pz     px    dxy    dyz    dz2    dxz  x2-y2    tot
    1  0.000  0.245  0.000  0.123  0.000  0.000  0.000  0.000  0.000  0.368
    2  0.000  0.245  0.000  0.123  0.000  0.000  0.000  0.000  0.000  0.368
tot    0.000  0.491  0.000  0.245  0.000  0.000  0.000  0.000  0.000  0.736
 
band     4 # energy    8.51039459 # occ.  2.00000000
 
ion      s     py     pz     px    dxy    dyz    dz2    dxz  x2-y2    tot
    1  0.016  0.120  0.000  0.241  0.000  0.000  0.000  0.000  0.000  0.377
    2  0.016  0.120  0.000  0.241  0.000  0.000  0.000  0.000  0.000  0.377
tot    0.032  0.241  0.000  0.481  0.000  0.000  0.000  0.000  0.000  0.754
 
band     5 # energy   14.90636694 # occ.  0.00000000
 
ion      s     py     pz     px    dxy    dyz    dz2    dxz  x2-y2    tot
    1  0.008  0.096  0.000  0.191  0.000  0.000  0.000  0.000  0.000  0.295
    2  0.008  0.096  0.000  0.191  0.000  0.000  0.000  0.000  0.000  0.295
tot    0.016  0.191  0.000  0.382  0.000  0.000  0.000  0.000  0.000  0.590
 
band     6 # energy   15.72651833 # occ.  0.00000000
 
ion      s     py     pz     px    dxy    dyz    dz2    dxz  x2-y2    tot
    1  0.000  0.207  0.000  0.104  0.000  0.000  0.000  0.000  0.000  0.311
    2  0.000  0.207  0.000  0.104  0.000  0.000  0.000  0.000  0.000  0.311
tot    0.000  0.414  0.000  0.207  0.000  0.000  0.000  0.000  0.000  0.621
 
band     7 # energy   15.72651913 # occ.  0.00000000
 
ion      s     py     pz     px    dxy    dyz    dz2    dxz  x2-y2    tot
    1  0.000  0.000  0.311  0.000  0.000  0.000  0.000  0.000  0.000  0.311
    2  0.000  0.000  0.311  0.000  0.000  0.000  0.000  0.000  0.000  0.311
tot    0.000  0.000  0.621  0.000  0.000  0.000  0.000  0.000  0.000  0.621
 
band     8 # energy   23.01175577 # occ.  0.00000000
 
ion      s     py     pz     px    dxy    dyz    dz2    dxz  x2-y2    tot
    1  0.385  0.007  0.000  0.013  0.000  0.000  0.000  0.000  0.000  0.405
    2  0.385  0.007  0.000  0.013  0.000  0.000  0.000  0.000  0.000  0.405
tot    0.770  0.013  0.000  0.027  0.000  0.000  0.000  0.000  0.000  0.810
 

 k-point    10 :    0.13333333 0.06666667 0.00000000     weight = 0.00711111

band     1 # energy  -11.71544509 # occ.  2.00000000
 
ion      s     py     pz     px    dxy    dyz    dz2    dxz  x2-y2    tot
    1  0.283  0.000  0.000  0.006  0.000  0.000  0.000  0.000  0.000  0.289
    2  0.283  0.000  0.000  0.006  0.000  0.000  0.000  0.000  0.000  0.289
tot    0.566  0.000  0.000  0.012  0.000  0.000  0.000  0.000  0.000  0.578
 
band     2 # energy    6.95715676 # occ.  2.00000000
 
ion      s     py     pz     px    dxy    dyz    dz2    dxz  x2-y2    tot
    1  0.026  0.046  0.000  0.285  0.000  0.000  0.000  0.000  0.000  0.357
    2  0.026  0.046  0.000  0.285  0.000  0.000  0.000  0.000  0.000  0.357
tot    0.051  0.093  0.000  0.570  0.000  0.000  0.000  0.000  0.000  0.714
 
band     3 # energy    7.75518911 # occ.  2.00000000
 
ion      s     py     pz     px    dxy    dyz    dz2    dxz  x2-y2    tot
    1  0.000  0.000  0.362  0.000  0.000  0.000  0.000  0.000  0.000  0.362
    2  0.000  0.000  0.362  0.000  0.000  0.000  0.000  0.000  0.000  0.362
tot    0.000  0.000  0.723  0.000  0.000  0.000  0.000  0.000  0.000  0.723
 
band     4 # energy    8.30896598 # occ.  2.00000000
 
ion      s     py     pz     px    dxy    dyz    dz2    dxz  x2-y2    tot
    1  0.011  0.315  0.000  0.049  0.000  0.000  0.000  0.000  0.000  0.375
    2  0.011  0.315  0.000  0.049  0.000  0.000  0.000  0.000  0.000  0.375
tot    0.022  0.629  0.000  0.098  0.000  0.000  0.000  0.000  0.000  0.749
 
band     5 # energy   15.10234276 # occ.  0.00000000
 
ion      s     py     pz     px    dxy    dyz    dz2    dxz  x2-y2    tot
    1  0.013  0.161  0.000  0.120  0.000  0.000  0.000  0.000  0.000  0.294
    2  0.013  0.161  0.000  0.120  0.000  0.000  0.000  0.000  0.000  0.294
tot    0.026  0.322  0.000  0.240  0.000  0.000  0.000  0.000  0.000  0.588
 
band     6 # energy   16.50043961 # occ.  0.00000000
 
ion      s     py     pz     px    dxy    dyz    dz2    dxz  x2-y2    tot
    1  0.000  0.000  0.318  0.000  0.000  0.000  0.000  0.000  0.000  0.318
    2  0.000  0.000  0.318  0.000  0.000  0.000  0.000  0.000  0.000  0.318
tot    0.000  0.000  0.637  0.000  0.000  0.000  0.000  0.000  0.000  0.637
 
band     7 # energy   16.55822864 # occ.  0.00000000
 
ion      s     py     pz     px    dxy    dyz    dz2    dxz  x2-y2    tot
    1  0.015  0.156  0.000  0.148  0.000  0.000  0.000  0.000  0.000  0.318
    2  0.015  0.156  0.000  0.148  0.000  0.000  0.000  0.000  0.000  0.318
tot    0.029  0.311  0.000  0.296  0.000  0.000  0.000  0.000  0.000  0.637
 
band     8 # energy   23.15993238 # occ.  0.00000000
 
ion      s     py     pz     px    dxy    dyz    dz2    dxz  x2-y2    tot
    1  0.343  0.001  0.000  0.052  0.000  0.000  0.000  0.000  0.000  0.395
    2  0.343  0.001  0.000  0.052  0.000  0.000  0.000  0.000  0.000  0.395
tot    0.686  0.002  0.000  0.103  0.000  0.000  0.000  0.000  0.000  0.791
 

 k-point    11 :    0.20000000 0.06666667 0.00000000     weight = 0.00711111

band     1 # energy  -11.19426527 # occ.  2.00000000
 
ion      s     py     pz     px    dxy    dyz    dz2    dxz  x2-y2    tot
    1  0.279  0.000  0.000  0.013  0.000  0.000  0.000  0.000  0.000  0.292
    2  0.279  0.000  0.000  0.013  0.000  0.000  0.000  0.000  0.000  0.292