PROCAR lm decomposed
# of k-points:    3         # of bands:    8         # of ions:    2

 k-point     1 :    0.00000000 0.00000000 0.00000000     weight = 0.12500000

band     1 # energy  -11.96384250 # occ.  2.00000000
 
ion      s     py     pz     px    dxy    dyz    dz2    dxz  x2-y2    tot
    1  0.286  0.000  0.000  0.000  0.000  0.000  0.000  0.000  0.000  0.286
    2  0.286  0.000  0.000  0.000  0.000  0.000  0.000  0.000  0.000  0.286
tot    0.572  0.000  0.000  0.000  0.000  0.000  0.000  0.000  0.000  0.572
 
band     2 # energy    9.31473617 # occ.  2.00000000
 
ion      s     py     pz     px    dxy    dyz    dz2    dxz  x2-y2    tot
    1  0.000  0.047  0.249  0.085  0.000  0.000  0.000  0.000  0.000  0.381
    2  0.000  0.047  0.249  0.085  0.000  0.000  0.000  0.000  0.000  0.381
tot    0.000  0.094  0.499  0.170  0.000  0.000  0.000  0.000  0.000  0.763
 
band     3 # energy    9.31476473 # occ.  2.00000000
 
ion      s     py     pz     px    dxy    dyz    dz2    dxz  x2-y2    tot
    1  0.000  0.236  0.107  0.039  0.000  0.000  0.000  0.000  0.000  0.381
    2  0.000  0.236  0.107  0.039  0.000  0.000  0.000  0.000  0.000  0.381
tot    0.000  0.471  0.213  0.078  0.000  0.000  0.000  0.000  0.000  0.763
 
band     4 # energy    9.31476620 # occ.  2.00000000
 
ion      s     py     pz     px    dxy    dyz    dz2    dxz  x2-y2    tot
    1  0.000  0.099  0.025  0.257  0.000  0.000  0.000  0.000  0.000  0.381
    2  0.000  0.099  0.025  0.257  0.000  0.000  0.000  0.000  0.000  0.381
tot    0.000  0.198  0.051  0.515  0.000  0.000  0.000  0.000  0.000  0.763
 
band     5 # energy   15.37351420 # occ.  0.00000000
 
ion      s     py     pz     px    dxy    dyz    dz2    dxz  x2-y2    tot
    1  0.000  0.023  0.201  0.077  0.000  0.000  0.000  0.000  0.000  0.301
    2  0.000  0.023  0.201  0.077  0.000  0.000  0.000  0.000  0.000  0.301
tot    0.000  0.047  0.402  0.153  0.000  0.000  0.000  0.000  0.000  0.602
 
band     6 # energy   15.37353240 # occ.  0.00000000
 
ion      s     py     pz     px    dxy    dyz    dz2    dxz  x2-y2    tot
    1  0.000  0.047  0.044  0.210  0.000  0.000  0.000  0.000  0.000  0.301
    2  0.000  0.047  0.044  0.210  0.000  0.000  0.000  0.000  0.000  0.301
tot    0.000  0.094  0.088  0.420  0.000  0.000  0.000  0.000  0.000  0.602
 
band     7 # energy   15.37353613 # occ.  0.00000000
 
ion      s     py     pz     px    dxy    dyz    dz2    dxz  x2-y2    tot
    1  0.000  0.231  0.056  0.014  0.000  0.000  0.000  0.000  0.000  0.301
    2  0.000  0.231  0.056  0.014  0.000  0.000  0.000  0.000  0.000  0.301
tot    0.000  0.461  0.112  0.028  0.000  0.000  0.000  0.000  0.000  0.602
 
band     8 # energy   23.18379191 # occ.  0.00000000
 
ion      s     py     pz     px    dxy    dyz    dz2    dxz  x2-y2    tot
    1  0.395  0.000  0.000  0.000  0.000  0.000  0.000  0.000  0.000  0.395
    2  0.395  0.000  0.000  0.000  0.000  0.000  0.000  0.000  0.000  0.395
tot    0.789  0.000  0.000  0.000  0.000  0.000  0.000  0.000  0.000  0.789
 

 k-point     2 :    0.50000000 0.00000000 0.00000000     weight = 0.50000000

band     1 # energy   -6.37918446 # occ.  2.00000000
 
ion      s     py     pz     px    dxy    dyz    dz2    dxz  x2-y2    tot
    1  0.298  0.004  0.000  0.029  0.000  0.000  0.000  0.000  0.000  0.331
    2  0.298  0.004  0.000  0.029  0.000  0.000  0.000  0.000  0.000  0.331
tot    0.596  0.007  0.000  0.058  0.000  0.000  0.000  0.000  0.000  0.661
 
band     2 # energy   -3.72193503 # occ.  2.00000000
 
ion      s     py     pz     px    dxy    dyz    dz2    dxz  x2-y2    tot
    1  0.084  0.022  0.000  0.173  0.000  0.000  0.000  0.000  0.000  0.279
    2  0.084  0.022  0.000  0.173  0.000  0.000  0.000  0.000  0.000  0.279
tot    0.168  0.043  0.000  0.346  0.000  0.000  0.000  0.000  0.000  0.558
 
band     3 # energy    6.51523957 # occ.  2.00000000
 
ion      s     py     pz     px    dxy    dyz    dz2    dxz  x2-y2    tot
    1  0.000  0.092  0.265  0.011  0.000  0.000  0.000  0.000  0.000  0.368
    2  0.000  0.092  0.265  0.011  0.000  0.000  0.000  0.000  0.000  0.368
tot    0.000  0.184  0.530  0.023  0.000  0.000  0.000  0.000  0.000  0.737
 
band     4 # energy    6.51526170 # occ.  2.00000000
 
ion      s     py     pz     px    dxy    dyz    dz2    dxz  x2-y2    tot
    1  0.000  0.235  0.103  0.029  0.000  0.000  0.000  0.000  0.000  0.368
    2  0.000  0.235  0.103  0.029  0.000  0.000  0.000  0.000  0.000  0.368
tot    0.000  0.471  0.207  0.059  0.000  0.000  0.000  0.000  0.000  0.737
 
band     5 # energy   18.33184163 # occ.  0.00000000
 
ion      s     py     pz     px    dxy    dyz    dz2    dxz  x2-y2    tot
    1  0.000  0.056  0.204  0.007  0.000  0.000  0.000  0.000  0.000  0.267
    2  0.000  0.056  0.204  0.007  0.000  0.000  0.000  0.000  0.000  0.267
tot    0.000  0.112  0.408  0.014  0.000  0.000  0.000  0.000  0.000  0.534
 
band     6 # energy   18.33186536 # occ.  0.00000000
 
ion      s     py     pz     px    dxy    dyz    dz2    dxz  x2-y2    tot
    1  0.000  0.181  0.063  0.023  0.000  0.000  0.000  0.000  0.000  0.267
    2  0.000  0.181  0.063  0.023  0.000  0.000  0.000  0.000  0.000  0.267
tot    0.000  0.363  0.126  0.045  0.000  0.000  0.000  0.000  0.000  0.534
 
band     7 # energy   18.66152785 # occ.  0.00000000
 
ion      s     py     pz     px    dxy    dyz    dz2    dxz  x2-y2    tot
    1  0.278  0.003  0.000  0.021  0.000  0.000  0.000  0.000  0.000  0.301
    2  0.278  0.003  0.000  0.021  0.000  0.000  0.000  0.000  0.000  0.301
tot    0.556  0.005  0.000  0.041  0.000  0.000  0.000  0.000  0.000  0.603
 
band     8 # energy   26.54537210 # occ.  0.00000000
 
ion      s     py     pz     px    dxy    dyz    dz2    dxz  x2-y2    tot
    1  0.002  0.030  0.000  0.237  0.000  0.000  0.000  0.000  0.000  0.269
    2  0.002  0.030  0.000  0.237  0.000  0.000  0.000  0.000  0.000  0.269
tot    0.003  0.059  0.000  0.475  0.000  0.000  0.000  0.000  0.000  0.537
 

 k-point     3 :    0.50000000 0.50000000 0.00000000     weight = 0.37500000

band     1 # energy   -3.36934997 # occ.  2.00000000
 
ion      s     py     pz     px    dxy    dyz    dz2    dxz  x2-y2    tot
    1  0.213  0.038  0.000  0.076  0.000  0.000  0.000  0.000  0.000  0.327
    2  0.213  0.038  0.000  0.076  0.000  0.000  0.000  0.000  0.000  0.327
tot    0.427  0.076  0.000  0.151  0.000  0.000  0.000  0.000  0.000  0.654
 
band     2 # energy   -3.36934954 # occ.  2.00000000
 
ion      s     py     pz     px    dxy    dyz    dz2    dxz  x2-y2    tot
    1  0.213  0.038  0.000  0.076  0.000  0.000  0.000  0.000  0.000  0.327
    2  0.213  0.038  0.000  0.076  0.000  0.000  0.000  0.000  0.000  0.327
tot    0.427  0.076  0.000  0.151  0.000  0.000  0.000  0.000  0.000  0.654
 
band     3 # energy    3.14793447 # occ.  2.00000000
 
ion      s     py     pz     px    dxy    dyz    dz2    dxz  x2-y2    tot
    1  0.000  0.000  0.337  0.000  0.000  0.000  0.000  0.000  0.000  0.337
    2  0.000  0.000  0.337  0.000  0.000  0.000  0.000  0.000  0.000  0.337
tot    0.000  0.000  0.675  0.000  0.000  0.000  0.000  0.000  0.000  0.675
 
band     4 # energy    3.14794760 # occ.  2.00000000
 
ion      s     py     pz     px    dxy    dyz    dz2    dxz  x2-y2    tot
    1  0.000  0.225  0.000  0.112  0.000  0.000  0.000  0.000  0.000  0.337
    2  0.000  0.225  0.000  0.112  0.000  0.000  0.000  0.000  0.000  0.337
tot    0.000  0.450  0.000  0.225  0.000  0.000  0.000  0.000  0.000  0.675
 
band     5 # energy   14.96740766 # occ.  0.00000000
 
ion      s     py     pz     px    dxy    dyz    dz2    dxz  x2-y2    tot
    1  0.110  0.020  0.000  0.041  0.000  0.000  0.000  0.000  0.000  0.171
    2  0.110  0.020  0.000  0.041  0.000  0.000  0.000  0.000  0.000  0.171
tot    0.220  0.041  0.000  0.082  0.000  0.000  0.000  0.000  0.000  0.343
 
band     6 # energy   14.96741895 # occ.  0.00000000
 
ion      s     py     pz     px    dxy    dyz    dz2    dxz  x2-y2    tot
    1  0.110  0.020  0.000  0.041  0.000  0.000  0.000  0.000  0.000  0.171
    2  0.110  0.020  0.000  0.041  0.000  0.000  0.000  0.000  0.000  0.171
tot    0.220  0.041  0.000  0.082  0.000  0.000  0.000  0.000  0.000  0.343
 
band     7 # energy   27.09812144 # occ.  0.00000000
 
ion      s     py     pz     px    dxy    dyz    dz2    dxz  x2-y2    tot
    1  0.000  0.000  0.426  0.000  0.000  0.000  0.000  0.000  0.000  0.426
    2  0.000  0.000  0.426  0.000  0.000  0.000  0.000  0.000  0.000  0.426
tot    0.000  0.000  0.853  0.000  0.000  0.000  0.000  0.000  0.000  0.853
 
band     8 # energy   27.09814845 # occ.  0.00000000
 
ion      s     py     pz     px    dxy    dyz    dz2    dxz  x2-y2    tot
    1  0.000  0.284  0.000  0.142  0.000  0.000  0.000  0.000  0.000  0.426
    2  0.000  0.284  0.000  0.142  0.000  0.000  0.000  0.000  0.000  0.426
tot    0.000  0.568  0.000  0.284  0.000  0.000  0.000  0.000  0.000  0.853
 
