<?xml version="1.0" encoding="ISO-8859-1"?>
<modeling>
 <generator>
  <i name="program" type="string">vasp </i>
  <i name="version" type="string">5.4.4.18Apr17-6-g9f103f2a35  </i>
  <i name="subversion" type="string">(build Jan 25 2021 16:16:55) complex            parallel </i>
  <i name="platform" type="string">LinuxIFC </i>
  <i name="date" type="string">2026 05 08 </i>
  <i name="time" type="string">07:49:05 </i>
 </generator>
 <incar>
  <i type="string" name="SYSTEM"> Diamont Test Results</i>
  <i type="int" name="ISTART">     0</i>
  <i type="string" name="PREC">accurate</i>
  <i type="string" name="ALGO"> Normal</i>
  <i type="int" name="ICHARG">     2</i>
  <i type="int" name="IBRION">    -1</i>
  <i name="EDIFF">      0.00010000</i>
  <i type="int" name="NSW">     0</i>
  <i name="ENCUT">    300.00000000</i>
  <i type="logical" name="LREAL"> F  </i>
  <i type="int" name="ISMEAR">     0</i>
  <i name="SIGMA">      0.05000000</i>
  <i type="logical" name="LWAVE"> F  </i>
  <i type="logical" name="LCHARG"> F  </i>
  <i type="int" name="LORBIT">    11</i>
  <i type="logical" name="LASPH"> T  </i>
  <v type="int" name="KPOINT_BSE">    -1     0     0     0</v>
  <i type="logical" name="LASPH"> T  </i>
 </incar>
 <structure name="primitive_cell" >
  <crystal>
   <varray name="basis" >
    <v>       2.18050236       0.00000000       1.25891346 </v>
    <v>       0.72683412       2.05579703       1.25891346 </v>
    <v>       0.00000000       0.00000000       2.51782692 </v>
   </varray>
   <i name="volume">     11.28658789 </i>
   <varray name="rec_basis" >
    <v>       0.45860991      -0.16214311       0.00000000 </v>
    <v>       0.00000000       0.48642934       0.00000000 </v>
    <v>      -0.22930496      -0.16214311       0.39716789 </v>
   </varray>
  </crystal>
  <varray name="positions" >
   <v>      -0.12500000      -0.12500000      -0.12500000 </v>
   <v>       0.12500000       0.12500000       0.12500000 </v>
  </varray>
 </structure>
 <varray name="primitive_index" >
  <v type="int" >        1 </v>
  <v type="int" >        2 </v>
 </varray>
 <kpoints>
  <generation param="Gamma">
   <v type="int" name="divisions">       2        2        2 </v>
   <v name="usershift">      0.00000000       0.00000000       0.00000000 </v>
   <v name="genvec1">      0.50000000      -0.00000000       0.00000000 </v>
   <v name="genvec2">      0.00000000       0.50000000       0.00000000 </v>
   <v name="genvec3">      0.00000000       0.00000000       0.50000000 </v>
   <v name="shift">      0.00000000       0.00000000       0.00000000 </v>
  </generation>
  <varray name="kpointlist" >
   <v>       0.00000000       0.00000000       0.00000000 </v>
   <v>       0.50000000       0.00000000       0.00000000 </v>
   <v>       0.50000000       0.50000000       0.00000000 </v>
  </varray>
  <varray name="weights" >
   <v>       0.12500000 </v>
   <v>       0.50000000 </v>
   <v>       0.37500000 </v>
  </varray>
 </kpoints>
 <parameters>
  <separator name="general" >
   <i type="string" name="SYSTEM">Diamont Test Results</i>
   <i type="logical" name="LCOMPAT"> F  </i>
  </separator>
  <separator name="electronic" >
   <i type="string" name="PREC">accura</i>
   <i name="ENMAX">    300.00000000</i>
   <i name="ENAUG">    644.87300000</i>
   <i name="EDIFF">      0.00010000</i>
   <i type="int" name="IALGO">    38</i>
   <i type="int" name="IWAVPR">    10</i>
   <i type="int" name="NBANDS">     8</i>
   <i name="NELECT">      8.00000000</i>
   <i type="int" name="TURBO">     0</i>
   <i type="int" name="IRESTART">     0</i>
   <i type="int" name="NREBOOT">     0</i>
   <i type="int" name="NMIN">     0</i>
   <i name="EREF">      0.00000000</i>
   <separator name="electronic smearing" >
    <i type="int" name="ISMEAR">     0</i>
    <i name="SIGMA">      0.05000000</i>
    <i name="KSPACING">      0.50000000</i>
    <i type="logical" name="KGAMMA"> T  </i>
   </separator>
   <separator name="electronic projectors" >
    <i type="logical" name="LREAL"> F  </i>
    <v name="ROPT">      0.00000000</v>
    <i type="int" name="LMAXPAW">  -100</i>
    <i type="int" name="LMAXMIX">     2</i>
    <i type="logical" name="NLSPLINE"> F  </i>
   </separator>
   <separator name="electronic startup" >
    <i type="int" name="ISTART">     0</i>
    <i type="int" name="ICHARG">     2</i>
    <i type="int" name="INIWAV">     1</i>
   </separator>
   <separator name="electronic spin" >
    <i type="int" name="ISPIN">     1</i>
    <i type="logical" name="LNONCOLLINEAR"> F  </i>
    <v name="MAGMOM">      1.00000000      1.00000000</v>
    <i name="NUPDOWN">     -1.00000000</i>
    <i type="logical" name="LSORBIT"> F  </i>
    <v name="SAXIS">      0.00000000      0.00000000      1.00000000</v>
    <i type="logical" name="LSPIRAL"> F  </i>
    <v name="QSPIRAL">      0.00000000      0.00000000      0.00000000</v>
    <i type="logical" name="LZEROZ"> F  </i>
   </separator>
   <separator name="electronic exchange-correlation" >
    <i type="logical" name="LASPH"> T  </i>
    <i type="logical" name="LMETAGGA"> F  </i>
   </separator>
   <separator name="electronic convergence" >
    <i type="int" name="NELM">    60</i>
    <i type="int" name="NELMDL">    -5</i>
    <i type="int" name="NELMIN">     2</i>
    <i name="ENINI">    300.00000000</i>
    <separator name="electronic convergence detail" >
     <i type="logical" name="LDIAG"> T  </i>
     <i type="logical" name="LSUBROT"> F  </i>
     <i name="WEIMIN">      0.00000000</i>
     <i name="EBREAK">      0.00000313</i>
     <i name="DEPER">      0.30000000</i>
     <i type="int" name="NRMM">     4</i>
     <i name="TIME">      0.40000000</i>
    </separator>
   </separator>
   <separator name="electronic mixer" >
    <i name="AMIX">      0.40000000</i>
    <i name="BMIX">      1.00000000</i>
    <i name="AMIN">      0.10000000</i>
    <i name="AMIX_MAG">      1.60000000</i>
    <i name="BMIX_MAG">      1.00000000</i>
    <separator name="electronic mixer details" >
     <i type="int" name="IMIX">     4</i>
     <i type="logical" name="MIXFIRST"> F  </i>
     <i type="int" name="MAXMIX">   -45</i>
     <i name="WC">    100.00000000</i>
     <i type="int" name="INIMIX">     1</i>
     <i type="int" name="MIXPRE">     1</i>
     <i type="int" name="MREMOVE">     5</i>
    </separator>
   </separator>
   <separator name="electronic dipolcorrection" >
    <i type="logical" name="LDIPOL"> F  </i>
    <i type="logical" name="LMONO"> F  </i>
    <i type="int" name="IDIPOL">     0</i>
    <i name="EPSILON">      1.00000000</i>
    <v name="DIPOL">   -100.00000000   -100.00000000   -100.00000000</v>
    <i name="EFIELD">      0.00000000</i>
   </separator>
  </separator>
  <separator name="grids" >
   <i type="int" name="NGX">    14</i>
   <i type="int" name="NGY">    14</i>
   <i type="int" name="NGZ">    14</i>
   <i type="int" name="NGXF">    28</i>
   <i type="int" name="NGYF">    28</i>
   <i type="int" name="NGZF">    28</i>
   <i type="logical" name="ADDGRID"> F  </i>
  </separator>
  <separator name="ionic" >
   <i type="int" name="NSW">     0</i>
   <i type="int" name="IBRION">    -1</i>
   <i type="int" name="MDALGO">     0</i>
   <i type="int" name="ISIF">     2</i>
   <i name="PSTRESS">      0.00000000</i>
   <i name="EDIFFG">      0.00100000</i>
   <i type="int" name="NFREE">     0</i>
   <i name="POTIM">      0.50000000</i>
   <i name="SMASS">     -3.00000000</i>
   <i name="SCALEE">      1.00000000</i>
  </separator>
  <separator name="ionic md" >
   <i name="TEBEG">      0.00010000</i>
   <i name="TEEND">      0.00010000</i>
   <i type="int" name="NBLOCK">     1</i>
   <i type="int" name="KBLOCK">     1</i>
   <i type="int" name="NPACO">   256</i>
   <i name="APACO">     16.00000000</i>
  </separator>
  <separator name="symmetry" >
   <i type="int" name="ISYM">     2</i>
   <i name="SYMPREC">      0.00001000</i>
  </separator>
  <separator name="dos" >
   <i type="int" name="LORBIT">    11</i>
   <v name="RWIGS">     -1.00000000</v>
   <i type="int" name="NEDOS">   301</i>
   <i name="EMIN">     10.00000000</i>
   <i name="EMAX">    -10.00000000</i>
   <i name="EFERMI">      0.00000000</i>
  </separator>
  <separator name="writing" >
   <i type="int" name="NWRITE">     2</i>
   <i type="logical" name="LWAVE"> F  </i>
   <i type="logical" name="LDOWNSAMPLE"> F  </i>
   <i type="logical" name="LCHARG"> F  </i>
   <i type="logical" name="LPARD"> F  </i>
   <i type="logical" name="LVTOT"> F  </i>
   <i type="logical" name="LVHAR"> F  </i>
   <i type="logical" name="LELF"> F  </i>
   <i type="logical" name="LOPTICS"> F  </i>
   <v name="STM">      0.00000000      0.00000000      0.00000000      0.00000000      0.00000000      0.00000000      0.00000000</v>
  </separator>
  <separator name="performance" >
   <i type="int" name="NPAR">     2</i>
   <i type="int" name="NSIM">     4</i>
   <i type="int" name="NBLK">    -1</i>
   <i type="logical" name="LPLANE"> T  </i>
   <i type="logical" name="LSCALAPACK"> T  </i>
   <i type="logical" name="LSCAAWARE"> F  </i>
   <i type="logical" name="LSCALU"> F  </i>
   <i type="logical" name="LASYNC"> F  </i>
   <i type="logical" name="LORBITALREAL"> F  </i>
  </separator>
  <separator name="miscellaneous" >
   <i type="int" name="IDIOT">     3</i>
   <i type="int" name="ISPECIAL">     0</i>
   <i type="logical" name="LMUSIC"> F  </i>
   <v name="POMASS">     12.01100000</v>
   <v name="DARWINR">      0.00000000</v>
   <v name="DARWINV">      1.00000000</v>
   <i type="logical" name="LCORR"> T  </i>
  </separator>
  <i type="logical" name="GGA_COMPAT"> T  </i>
  <i type="logical" name="LBERRY"> F  </i>
  <i type="int" name="ICORELEVEL">     0</i>
  <i type="logical" name="LDAU"> F  </i>
  <i type="int" name="I_CONSTRAINED_M">     0</i>
  <separator name="electronic exchange-correlation" >
   <i type="string" name="GGA">--</i>
   <i type="int" name="VOSKOWN">     0</i>
   <i type="logical" name="LHFCALC"> F  </i>
   <i type="string" name="PRECFOCK"></i>
   <i type="logical" name="LSYMGRAD"> F  </i>
   <i type="logical" name="LHFONE"> F  </i>
   <i type="logical" name="LRHFCALC"> F  </i>
   <i type="logical" name="LTHOMAS"> F  </i>
   <i type="logical" name="LMODELHF"> F  </i>
   <i name="ENCUT4O">     -1.00000000</i>
   <i type="int" name="EXXOEP">     0</i>
   <i type="int" name="FOURORBIT">     0</i>
   <i name="AEXX">      0.00000000</i>
   <i name="HFALPHA">      0.00000000</i>
   <i name="MCALPHA">      0.00000000</i>
   <i name="ALDAX">      1.00000000</i>
   <i name="AGGAX">      1.00000000</i>
   <i name="ALDAC">      1.00000000</i>
   <i name="AGGAC">      1.00000000</i>
   <i type="int" name="NKREDX">     1</i>
   <i type="int" name="NKREDY">     1</i>
   <i type="int" name="NKREDZ">     1</i>
   <i type="logical" name="SHIFTRED"> F  </i>
   <i type="logical" name="ODDONLY"> F  </i>
   <i type="logical" name="EVENONLY"> F  </i>
   <i type="int" name="LMAXFOCK">     0</i>
   <i type="int" name="NMAXFOCKAE">     0</i>
   <i type="logical" name="LFOCKAEDFT"> F  </i>
   <i name="HFSCREEN">      0.00000000</i>
   <i name="HFSCREENC">      0.00000000</i>
   <i type="int" name="NBANDSGWLOW">     0</i>
  </separator>
  <separator name="vdW DFT" >
   <i type="logical" name="LUSE_VDW"> F  </i>
   <i name="Zab_VDW">     -0.84910000</i>
   <i name="PARAM1">      0.12340000</i>
   <i name="PARAM2">      1.00000000</i>
   <i name="PARAM3">      0.00000000</i>
  </separator>
  <separator name="model GW" >
   <i type="int" name="MODEL_GW">     0</i>
   <i name="MODEL_EPS0">      3.38597637</i>
   <i name="MODEL_ALPHA">      1.00000000</i>
  </separator>
  <separator name="linear response parameters" >
   <i type="logical" name="LEPSILON"> F  </i>
   <i type="logical" name="LRPA"> F  </i>
   <i type="logical" name="LNABLA"> F  </i>
   <i type="logical" name="LVEL"> F  </i>
   <i type="int" name="KINTER">     0</i>
   <i name="CSHIFT">      0.10000000</i>
   <i name="OMEGAMAX">     -1.00000000</i>
   <i name="DEG_THRESHOLD">      0.00200000</i>
   <i name="RTIME">     -0.10000000</i>
   <i name="WPLASMAI">      0.00000000</i>
   <v name="DFIELD">      0.00000000      0.00000000      0.00000000</v>
   <v name="WPLASMA">      0.00000000      0.00000000      0.00000000      0.00000000      0.00000000      0.00000000      0.00000000      0.00000000      0.00000000</v>
  </separator>
  <separator name="orbital magnetization" >
   <i type="logical" name="NUCIND"> F  </i>
   <v name="MAGPOS">      0.00000000      0.00000000      0.00000000</v>
   <i type="logical" name="LNICSALL"> T  </i>
   <i type="logical" name="ORBITALMAG"> F  </i>
   <i type="logical" name="LMAGBLOCH"> F  </i>
   <i type="logical" name="LCHIMAG"> F  </i>
   <i type="logical" name="LGAUGE"> T  </i>
   <i type="int" name="MAGATOM">     0</i>
   <v name="MAGDIPOL">      0.00000000      0.00000000      0.00000000</v>
   <v name="AVECCONST">      0.00000000      0.00000000      0.00000000</v>
  </separator>
  <separator name="response functions" >
   <i type="logical" name="LADDER"> F  </i>
   <i type="logical" name="LRPAFORCE"> F  </i>
   <i type="logical" name="LFXC"> F  </i>
   <i type="logical" name="LHARTREE"> T  </i>
   <i type="int" name="IBSE">     0</i>
   <v type="int" name="KPOINT">    -1     0     0     0</v>
   <i type="logical" name="LTCTE"> F  </i>
   <i type="logical" name="LTETE"> F  </i>
   <i type="logical" name="LTRIPLET"> F  </i>
   <i type="logical" name="LFXCEPS"> F  </i>
   <i type="logical" name="LFXHEG"> F  </i>
   <i type="int" name="NATURALO">     2</i>
   <i type="logical" name="L2ORDER"> F  </i>
   <i type="logical" name="LMP2LT"> F  </i>
   <i type="logical" name="LUSEW"> F  </i>
   <i name="ENCUTGW">     -2.00000000</i>
   <i name="ENCUTGWSOFT">     -2.00000000</i>
   <i name="ENCUTLF">     -1.00000000</i>
   <i type="int" name="LMAXMP2">    -1</i>
   <i name="SCISSOR">      0.00000000</i>
   <i type="int" name="NOMEGA">     0</i>
   <i type="int" name="NOMEGAR">     0</i>
   <i type="int" name="NBANDSGW">    -1</i>
   <i type="int" name="NBANDSO">    -1</i>
   <i type="int" name="NBANDSV">    -1</i>
   <i type="int" name="NELM">     1</i>
   <i type="int" name="NELMHF">     1</i>
   <i type="int" name="DIM">     3</i>
   <i type="int" name="ANTIRES">     0</i>
   <i name="OMEGAMAX">    -30.00000000</i>
   <i name="OMEGAMIN">    -30.00000000</i>
   <i name="OMEGATL">   -200.00000000</i>
   <i type="int" name="OMEGAGRID">   140</i>
   <i name="CSHIFT">     -0.10000000</i>
   <i type="logical" name="SELFENERGY"> F  </i>
   <i type="logical" name="LSPECTRAL"> F  </i>
   <i type="logical" name="LSPECTRALGW"> F  </i>
   <i type="logical" name="LSINGLES"> F  </i>
   <i type="logical" name="LFERMIGW"> F  </i>
   <i type="logical" name="ODDONLYGW"> F  </i>
   <i type="logical" name="EVENONLYGW"> F  </i>
   <i type="int" name="NKREDLFX">     1</i>
   <i type="int" name="NKREDLFY">     1</i>
   <i type="int" name="NKREDLFZ">     1</i>
   <i type="int" name="MAXMEM">  2800</i>
   <i type="int" name="TELESCOPE">     0</i>
   <i type="int" name="TAUPAR">     1</i>
   <i type="int" name="OMEGAPAR">    -1</i>
   <i name="LAMBDA">      1.00000000</i>
  </separator>
  <separator name="External order field" >
   <i name="OFIELD_KAPPA">      0.00000000</i>
   <v name="OFIELD_K">      0.00000000      0.00000000      0.00000000</v>
   <i name="OFIELD_Q6_NEAR">      0.00000000</i>
   <i name="OFIELD_Q6_FAR">      0.00000000</i>
   <i name="OFIELD_A">      0.00000000</i>
  </separator>
 </parameters>
 <atominfo>
  <atoms>       2 </atoms>
  <types>       1 </types>
  <array name="atoms" >
   <dimension dim="1">ion</dimension>
   <field type="string">element</field>
   <field type="int">atomtype</field>
   <set>
    <rc><c>C </c><c>   1</c></rc>
    <rc><c>C </c><c>   1</c></rc>
   </set>
  </array>
  <array name="atomtypes" >
   <dimension dim="1">type</dimension>
   <field type="int">atomspertype</field>
   <field type="string">element</field>
   <field>mass</field>
   <field>valence</field>
   <field type="string">pseudopotential</field>
   <set>
    <rc><c>   2</c><c>C </c><c>     12.01100000</c><c>      4.00000000</c><c>  PAW_PBE C 08Apr2002                   </c></rc>
   </set>
  </array>
 </atominfo>
 <structure name="initialpos" >
  <crystal>
   <varray name="basis" >
    <v>       2.18050236       0.00000000       1.25891346 </v>
    <v>       0.72683412       2.05579703       1.25891346 </v>
    <v>       0.00000000       0.00000000       2.51782692 </v>
   </varray>
   <i name="volume">     11.28658789 </i>
   <varray name="rec_basis" >
    <v>       0.45860991      -0.16214311       0.00000000 </v>
    <v>       0.00000000       0.48642934       0.00000000 </v>
    <v>      -0.22930496      -0.16214311       0.39716789 </v>
   </varray>
  </crystal>
  <varray name="positions" >
   <v>       0.87500000       0.87500000       0.87500000 </v>
   <v>       0.12500000       0.12500000       0.12500000 </v>
  </varray>
 </structure>
 <calculation>
  <scstep>
   <time name="dav">    0.00    0.00</time>
   <time name="total">    0.03    0.03</time>
   <energy>
    <i name="alphaZ">      9.64992412 </i>
    <i name="ewald">   -348.55062700 </i>
    <i name="hartreedc">    -17.50286058 </i>
    <i name="XCdc">     27.43730273 </i>
    <i name="pawpsdc">    217.04409276 </i>
    <i name="pawaedc">   -218.18290438 </i>
    <i name="eentropy">     -0.00000000 </i>
    <i name="bandstr">      4.08655659 </i>
    <i name="atom">    293.79980732 </i>
    <i name="e_fr_energy">    -32.21870843 </i>
    <i name="e_wo_entrp">    -32.21870843 </i>
    <i name="e_0_energy">    -32.21870843 </i>
   </energy>
  </scstep>
  <scstep>
   <time name="dav">    0.00    0.00</time>
   <time name="total">    0.00    0.00</time>
   <energy>
    <i name="e_fr_energy">    -43.07024018 </i>
    <i name="e_wo_entrp">    -43.07024018 </i>
    <i name="e_0_energy">    -43.07024018 </i>
   </energy>
  </scstep>
  <scstep>
   <time name="dav">    0.00    0.00</time>
   <time name="total">    0.00    0.00</time>
   <energy>
    <i name="e_fr_energy">    -43.10302132 </i>
    <i name="e_wo_entrp">    -43.10302132 </i>
    <i name="e_0_energy">    -43.10302132 </i>
   </energy>
  </scstep>
  <scstep>
   <time name="dav">    0.00    0.00</time>
   <time name="total">    0.00    0.00</time>
   <energy>
    <i name="e_fr_energy">    -43.10304668 </i>
    <i name="e_wo_entrp">    -43.10304668 </i>
    <i name="e_0_energy">    -43.10304668 </i>
   </energy>
  </scstep>
  <scstep>
   <time name="dav">    0.00    0.00</time>
   <time name="total">    0.00    0.00</time>
   <energy>
    <i name="e_fr_energy">    -43.10304669 </i>
    <i name="e_wo_entrp">    -43.10304669 </i>
    <i name="e_0_energy">    -43.10304669 </i>
   </energy>
  </scstep>
  <scstep>
   <time name="dav">    0.00    0.00</time>
   <time name="total">    0.03    0.03</time>
   <energy>
    <i name="e_fr_energy">    -42.22642756 </i>
    <i name="e_wo_entrp">    -42.22642756 </i>
    <i name="e_0_energy">    -42.22642756 </i>
   </energy>
  </scstep>
  <scstep>
   <time name="dav">    0.00    0.00</time>
   <time name="total">    0.03    0.03</time>
   <energy>
    <i name="e_fr_energy">    -41.90163372 </i>
    <i name="e_wo_entrp">    -41.90163372 </i>
    <i name="e_0_energy">    -41.90163372 </i>
   </energy>
  </scstep>
  <scstep>
   <time name="dav">    0.00    0.00</time>
   <time name="total">    0.03    0.03</time>
   <energy>
    <i name="e_fr_energy">    -41.90638786 </i>
    <i name="e_wo_entrp">    -41.90638786 </i>
    <i name="e_0_energy">    -41.90638786 </i>
   </energy>
  </scstep>
  <scstep>
   <time name="dav">    0.00    0.00</time>
   <time name="total">    0.03    0.03</time>
   <energy>
    <i name="alphaZ">      9.64992412 </i>
    <i name="ewald">   -348.55062700 </i>
    <i name="hartreedc">    -30.74638598 </i>
    <i name="XCdc">     28.66776450 </i>
    <i name="pawpsdc">    921.39496046 </i>
    <i name="pawaedc">   -922.71429511 </i>
    <i name="eentropy">     -0.00000000 </i>
    <i name="bandstr">      6.59237484 </i>
    <i name="atom">    293.79980732 </i>
    <i name="e_fr_energy">    -41.90647684 </i>
    <i name="e_wo_entrp">    -41.90647684 </i>
    <i name="e_0_energy">    -41.90647684 </i>
   </energy>
  </scstep>
  <structure>
   <crystal>
    <varray name="basis" >
     <v>       2.18050236       0.00000000       1.25891346 </v>
     <v>       0.72683412       2.05579703       1.25891346 </v>
     <v>       0.00000000       0.00000000       2.51782692 </v>
    </varray>
    <i name="volume">     11.28658789 </i>
    <varray name="rec_basis" >
     <v>       0.45860991      -0.16214311       0.00000000 </v>
     <v>       0.00000000       0.48642934       0.00000000 </v>
     <v>      -0.22930496      -0.16214311       0.39716789 </v>
    </varray>
   </crystal>
   <varray name="positions" >
    <v>       0.87500000       0.87500000       0.87500000 </v>
    <v>       0.12500000       0.12500000       0.12500000 </v>
   </varray>
  </structure>
  <varray name="forces" >
   <v>      -0.00000000       0.00000000      -0.00000000 </v>
   <v>       0.00000000      -0.00000000       0.00000000 </v>
  </varray>
  <varray name="stress" >
   <v>   -2192.58058814       0.00000000      -0.00000000 </v>
   <v>      -0.00000000   -2192.57992646      -0.00000000 </v>
   <v>      -0.00000000      -0.00000000   -2192.58001509 </v>
  </varray>
  <energy>
   <i name="e_fr_energy">    -41.90647684 </i>
   <i name="e_wo_entrp">    -41.90647684 </i>
   <i name="e_0_energy">     -0.00000000 </i>
  </energy>
  <time name="totalsc">    0.23    0.23</time>
  <eigenvalues>
   <array>
    <dimension dim="1">band</dimension>
    <dimension dim="2">kpoint</dimension>
    <dimension dim="3">spin</dimension>
    <field>eigene</field>
    <field>occ</field>
    <set>
     <set comment="spin 1">
      <set comment="kpoint 1">
       <r>  -11.9638    1.0000 </r>
       <r>    9.3147    1.0000 </r>
       <r>    9.3148    1.0000 </r>
       <r>    9.3148    1.0000 </r>
       <r>   15.3735    0.0000 </r>
       <r>   15.3735    0.0000 </r>
       <r>   15.3735    0.0000 </r>
       <r>   23.1838    0.0000 </r>
      </set>
      <set comment="kpoint 2">
       <r>   -6.3792    1.0000 </r>
       <r>   -3.7219    1.0000 </r>
       <r>    6.5152    1.0000 </r>
       <r>    6.5153    1.0000 </r>
       <r>   18.3318    0.0000 </r>
       <r>   18.3319    0.0000 </r>
       <r>   18.6615    0.0000 </r>
       <r>   26.5454    0.0000 </r>
      </set>
      <set comment="kpoint 3">
       <r>   -3.3693    1.0000 </r>
       <r>   -3.3693    1.0000 </r>
       <r>    3.1479    1.0000 </r>
       <r>    3.1479    1.0000 </r>
       <r>   14.9674    0.0000 </r>
       <r>   14.9674    0.0000 </r>
       <r>   27.0981    0.0000 </r>
       <r>   27.0981    0.0000 </r>
      </set>
     </set>
    </set>
   </array>
  </eigenvalues>
  <separator name="orbital magnetization" >
   <v name="MAGDIPOLOUT">      0.00000000      0.00000000      0.00000000</v>
  </separator>
  <dos>
   <i name="efermi">      9.59023859 </i>
   <total>
    <array>
     <dimension dim="1">gridpoints</dimension>
     <dimension dim="2">spin</dimension>
     <field>energy</field>
     <field>total</field>
     <field>integrated</field>
     <set>
      <set comment="spin 1">
       <r>   -13.9169     0.0000     0.0000 </r>
       <r>   -13.7737     0.0000     0.0000 </r>
       <r>   -13.6305     0.0000     0.0000 </r>
       <r>   -13.4873     0.0000     0.0000 </r>
       <r>   -13.3440     0.0000     0.0000 </r>
       <r>   -13.2008     0.0000     0.0000 </r>
       <r>   -13.0576     0.0000     0.0000 </r>
       <r>   -12.9144     0.0000     0.0000 </r>
       <r>   -12.7711     0.0000     0.0000 </r>
       <r>   -12.6279     0.0000     0.0000 </r>
       <r>   -12.4847     0.0000     0.0000 </r>
       <r>   -12.3414     0.0000     0.0000 </r>
       <r>   -12.1982     0.0000     0.0000 </r>
       <r>   -12.0550     0.0087     0.0012 </r>
       <r>   -11.9118     1.6140     0.2324 </r>
       <r>   -11.7685     0.1228     0.2500 </r>
       <r>   -11.6253     0.0000     0.2500 </r>
       <r>   -11.4821     0.0000     0.2500 </r>
       <r>   -11.3389     0.0000     0.2500 </r>
       <r>   -11.1956     0.0000     0.2500 </r>
       <r>   -11.0524     0.0000     0.2500 </r>
       <r>   -10.9092     0.0000     0.2500 </r>
       <r>   -10.7659     0.0000     0.2500 </r>
       <r>   -10.6227     0.0000     0.2500 </r>
       <r>   -10.4795     0.0000     0.2500 </r>
       <r>   -10.3363     0.0000     0.2500 </r>
       <r>   -10.1930     0.0000     0.2500 </r>
       <r>   -10.0498     0.0000     0.2500 </r>
       <r>    -9.9066     0.0000     0.2500 </r>
       <r>    -9.7634     0.0000     0.2500 </r>
       <r>    -9.6201     0.0000     0.2500 </r>
       <r>    -9.4769     0.0000     0.2500 </r>
       <r>    -9.3337     0.0000     0.2500 </r>
       <r>    -9.1904     0.0000     0.2500 </r>
       <r>    -9.0472     0.0000     0.2500 </r>
       <r>    -8.9040     0.0000     0.2500 </r>
       <r>    -8.7608     0.0000     0.2500 </r>
       <r>    -8.6175     0.0000     0.2500 </r>
       <r>    -8.4743     0.0000     0.2500 </r>
       <r>    -8.3311     0.0000     0.2500 </r>
       <r>    -8.1879     0.0000     0.2500 </r>
       <r>    -8.0446     0.0000     0.2500 </r>
       <r>    -7.9014     0.0000     0.2500 </r>
       <r>    -7.7582     0.0000     0.2500 </r>
       <r>    -7.6149     0.0000     0.2500 </r>
       <r>    -7.4717     0.0000     0.2500 </r>
       <r>    -7.3285     0.0000     0.2500 </r>
       <r>    -7.1853     0.0000     0.2500 </r>
       <r>    -7.0420     0.0000     0.2500 </r>
       <r>    -6.8988     0.0000     0.2500 </r>
       <r>    -6.7556     0.0000     0.2500 </r>
       <r>    -6.6123     0.0000     0.2500 </r>
       <r>    -6.4691     0.0383     0.2555 </r>
       <r>    -6.3259     6.4837     1.1841 </r>
       <r>    -6.1827     0.4599     1.2500 </r>
       <r>    -6.0394     0.0000     1.2500 </r>
       <r>    -5.8962     0.0000     1.2500 </r>
       <r>    -5.7530     0.0000     1.2500 </r>
       <r>    -5.6098     0.0000     1.2500 </r>
       <r>    -5.4665     0.0000     1.2500 </r>
       <r>    -5.3233     0.0000     1.2500 </r>
       <r>    -5.1801     0.0000     1.2500 </r>
       <r>    -5.0368     0.0000     1.2500 </r>
       <r>    -4.8936     0.0000     1.2500 </r>
       <r>    -4.7504     0.0000     1.2500 </r>
       <r>    -4.6072     0.0000     1.2500 </r>
       <r>    -4.4639     0.0000     1.2500 </r>
       <r>    -4.3207     0.0000     1.2500 </r>
       <r>    -4.1775     0.0000     1.2500 </r>
       <r>    -4.0343     0.0000     1.2500 </r>
       <r>    -3.8910     0.0000     1.2500 </r>
       <r>    -3.7478     1.6211     1.4822 </r>
       <r>    -3.6046     5.3577     2.2495 </r>
       <r>    -3.4613     0.0517     2.2569 </r>
       <r>    -3.3181     9.6527     3.6395 </r>
       <r>    -3.1749     0.7716     3.7500 </r>
       <r>    -3.0317     0.0000     3.7500 </r>
       <r>    -2.8884     0.0000     3.7500 </r>
       <r>    -2.7452     0.0000     3.7500 </r>
       <r>    -2.6020     0.0000     3.7500 </r>
       <r>    -2.4588     0.0000     3.7500 </r>
       <r>    -2.3155     0.0000     3.7500 </r>
       <r>    -2.1723     0.0000     3.7500 </r>
       <r>    -2.0291     0.0000     3.7500 </r>
       <r>    -1.8858     0.0000     3.7500 </r>
       <r>    -1.7426     0.0000     3.7500 </r>
       <r>    -1.5994     0.0000     3.7500 </r>
       <r>    -1.4562     0.0000     3.7500 </r>
       <r>    -1.3129     0.0000     3.7500 </r>
       <r>    -1.1697     0.0000     3.7500 </r>
       <r>    -1.0265     0.0000     3.7500 </r>
       <r>    -0.8833     0.0000     3.7500 </r>
       <r>    -0.7400     0.0000     3.7500 </r>
       <r>    -0.5968     0.0000     3.7500 </r>
       <r>    -0.4536     0.0000     3.7500 </r>
       <r>    -0.3103     0.0000     3.7500 </r>
       <r>    -0.1671     0.0000     3.7500 </r>
       <r>    -0.0239     0.0000     3.7500 </r>
       <r>     0.1193     0.0000     3.7500 </r>
       <r>     0.2626     0.0000     3.7500 </r>
       <r>     0.4058     0.0000     3.7500 </r>
       <r>     0.5490     0.0000     3.7500 </r>
       <r>     0.6922     0.0000     3.7500 </r>
       <r>     0.8355     0.0000     3.7500 </r>
       <r>     0.9787     0.0000     3.7500 </r>
       <r>     1.1219     0.0000     3.7500 </r>
       <r>     1.2652     0.0000     3.7500 </r>
       <r>     1.4084     0.0000     3.7500 </r>
       <r>     1.5516     0.0000     3.7500 </r>
       <r>     1.6948     0.0000     3.7500 </r>
       <r>     1.8381     0.0000     3.7500 </r>
       <r>     1.9813     0.0000     3.7500 </r>
       <r>     2.1245     0.0000     3.7500 </r>
       <r>     2.2677     0.0000     3.7500 </r>
       <r>     2.4110     0.0000     3.7500 </r>
       <r>     2.5542     0.0000     3.7500 </r>
       <r>     2.6974     0.0000     3.7500 </r>
       <r>     2.8407     0.0000     3.7500 </r>
       <r>     2.9839     0.0000     3.7500 </r>
       <r>     3.1271     2.9097     4.1668 </r>
       <r>     3.2703     7.5603     5.2496 </r>
       <r>     3.4136     0.0028     5.2500 </r>
       <r>     3.5568     0.0000     5.2500 </r>
       <r>     3.7000     0.0000     5.2500 </r>
       <r>     3.8432     0.0000     5.2500 </r>
       <r>     3.9865     0.0000     5.2500 </r>
       <r>     4.1297     0.0000     5.2500 </r>
       <r>     4.2729     0.0000     5.2500 </r>
       <r>     4.4162     0.0000     5.2500 </r>
       <r>     4.5594     0.0000     5.2500 </r>
       <r>     4.7026     0.0000     5.2500 </r>
       <r>     4.8458     0.0000     5.2500 </r>
       <r>     4.9891     0.0000     5.2500 </r>
       <r>     5.1323     0.0000     5.2500 </r>
       <r>     5.2755     0.0000     5.2500 </r>
       <r>     5.4187     0.0000     5.2500 </r>
       <r>     5.5620     0.0000     5.2500 </r>
       <r>     5.7052     0.0000     5.2500 </r>
       <r>     5.8484     0.0000     5.2500 </r>
       <r>     5.9917     0.0000     5.2500 </r>
       <r>     6.1349     0.0000     5.2500 </r>
       <r>     6.2781     0.0000     5.2500 </r>
       <r>     6.4213     0.0552     5.2579 </r>
       <r>     6.5646    12.7699     7.0869 </r>
       <r>     6.7078     1.1387     7.2500 </r>
       <r>     6.8510     0.0000     7.2500 </r>
       <r>     6.9942     0.0000     7.2500 </r>
       <r>     7.1375     0.0000     7.2500 </r>
       <r>     7.2807     0.0000     7.2500 </r>
       <r>     7.4239     0.0000     7.2500 </r>
       <r>     7.5672     0.0000     7.2500 </r>
       <r>     7.7104     0.0000     7.2500 </r>
       <r>     7.8536     0.0000     7.2500 </r>
       <r>     7.9968     0.0000     7.2500 </r>
       <r>     8.1401     0.0000     7.2500 </r>
       <r>     8.2833     0.0000     7.2500 </r>
       <r>     8.4265     0.0000     7.2500 </r>
       <r>     8.5697     0.0000     7.2500 </r>
       <r>     8.7130     0.0000     7.2500 </r>
       <r>     8.8562     0.0000     7.2500 </r>
       <r>     8.9994     0.0000     7.2500 </r>
       <r>     9.1427     0.0000     7.2500 </r>
       <r>     9.2859     1.0842     7.4053 </r>
       <r>     9.4291     4.1491     7.9995 </r>
       <r>     9.5723     0.0032     8.0000 </r>
       <r>     9.7156     0.0000     8.0000 </r>
       <r>     9.8588     0.0000     8.0000 </r>
       <r>    10.0020     0.0000     8.0000 </r>
       <r>    10.1452     0.0000     8.0000 </r>
       <r>    10.2885     0.0000     8.0000 </r>
       <r>    10.4317     0.0000     8.0000 </r>
       <r>    10.5749     0.0000     8.0000 </r>
       <r>    10.7182     0.0000     8.0000 </r>
       <r>    10.8614     0.0000     8.0000 </r>
       <r>    11.0046     0.0000     8.0000 </r>
       <r>    11.1478     0.0000     8.0000 </r>
       <r>    11.2911     0.0000     8.0000 </r>
       <r>    11.4343     0.0000     8.0000 </r>
       <r>    11.5775     0.0000     8.0000 </r>
       <r>    11.7207     0.0000     8.0000 </r>
       <r>    11.8640     0.0000     8.0000 </r>
       <r>    12.0072     0.0000     8.0000 </r>
       <r>    12.1504     0.0000     8.0000 </r>
       <r>    12.2937     0.0000     8.0000 </r>
       <r>    12.4369     0.0000     8.0000 </r>
       <r>    12.5801     0.0000     8.0000 </r>
       <r>    12.7233     0.0000     8.0000 </r>
       <r>    12.8666     0.0000     8.0000 </r>
       <r>    13.0098     0.0000     8.0000 </r>
       <r>    13.1530     0.0000     8.0000 </r>
       <r>    13.2962     0.0000     8.0000 </r>
       <r>    13.4395     0.0000     8.0000 </r>
       <r>    13.5827     0.0000     8.0000 </r>
       <r>    13.7259     0.0000     8.0000 </r>
       <r>    13.8692     0.0000     8.0000 </r>
       <r>    14.0124     0.0000     8.0000 </r>
       <r>    14.1556     0.0000     8.0000 </r>
       <r>    14.2988     0.0000     8.0000 </r>
       <r>    14.4421     0.0000     8.0000 </r>
       <r>    14.5853     0.0000     8.0000 </r>
       <r>    14.7285     0.0000     8.0000 </r>
       <r>    14.8717     0.0357     8.0051 </r>
       <r>    15.0150     9.5021     9.3661 </r>
       <r>    15.1582     0.9351     9.5000 </r>
       <r>    15.3014     0.1084     9.5155 </r>
       <r>    15.4447     5.0121    10.2334 </r>
       <r>    15.5879     0.1158    10.2500 </r>
       <r>    15.7311     0.0000    10.2500 </r>
       <r>    15.8743     0.0000    10.2500 </r>
       <r>    16.0176     0.0000    10.2500 </r>
       <r>    16.1608     0.0000    10.2500 </r>
       <r>    16.3040     0.0000    10.2500 </r>
       <r>    16.4472     0.0000    10.2500 </r>
       <r>    16.5905     0.0000    10.2500 </r>
       <r>    16.7337     0.0000    10.2500 </r>
       <r>    16.8769     0.0000    10.2500 </r>
       <r>    17.0202     0.0000    10.2500 </r>
       <r>    17.1634     0.0000    10.2500 </r>
       <r>    17.3066     0.0000    10.2500 </r>
       <r>    17.4498     0.0000    10.2500 </r>
       <r>    17.5931     0.0000    10.2500 </r>
       <r>    17.7363     0.0000    10.2500 </r>
       <r>    17.8795     0.0000    10.2500 </r>
       <r>    18.0227     0.0000    10.2500 </r>
       <r>    18.1660     0.0000    10.2500 </r>
       <r>    18.3092     3.6425    10.7717 </r>
       <r>    18.4524    10.3168    12.2494 </r>
       <r>    18.5957     0.2225    12.2812 </r>
       <r>    18.7389     6.6638    13.2357 </r>
       <r>    18.8821     0.1001    13.2500 </r>
       <r>    19.0253     0.0000    13.2500 </r>
       <r>    19.1686     0.0000    13.2500 </r>
       <r>    19.3118     0.0000    13.2500 </r>
       <r>    19.4550     0.0000    13.2500 </r>
       <r>    19.5982     0.0000    13.2500 </r>
       <r>    19.7415     0.0000    13.2500 </r>
       <r>    19.8847     0.0000    13.2500 </r>
       <r>    20.0279     0.0000    13.2500 </r>
       <r>    20.1712     0.0000    13.2500 </r>
       <r>    20.3144     0.0000    13.2500 </r>
       <r>    20.4576     0.0000    13.2500 </r>
       <r>    20.6008     0.0000    13.2500 </r>
       <r>    20.7441     0.0000    13.2500 </r>
       <r>    20.8873     0.0000    13.2500 </r>
       <r>    21.0305     0.0000    13.2500 </r>
       <r>    21.1737     0.0000    13.2500 </r>
       <r>    21.3170     0.0000    13.2500 </r>
       <r>    21.4602     0.0000    13.2500 </r>
       <r>    21.6034     0.0000    13.2500 </r>
       <r>    21.7467     0.0000    13.2500 </r>
       <r>    21.8899     0.0000    13.2500 </r>
       <r>    22.0331     0.0000    13.2500 </r>
       <r>    22.1763     0.0000    13.2500 </r>
       <r>    22.3196     0.0000    13.2500 </r>
       <r>    22.4628     0.0000    13.2500 </r>
       <r>    22.6060     0.0000    13.2500 </r>
       <r>    22.7492     0.0000    13.2500 </r>
       <r>    22.8925     0.0000    13.2500 </r>
       <r>    23.0357     0.0000    13.2500 </r>
       <r>    23.1789     0.7772    13.3613 </r>
       <r>    23.3222     0.9681    13.5000 </r>
       <r>    23.4654     0.0001    13.5000 </r>
       <r>    23.6086     0.0000    13.5000 </r>
       <r>    23.7518     0.0000    13.5000 </r>
       <r>    23.8951     0.0000    13.5000 </r>
       <r>    24.0383     0.0000    13.5000 </r>
       <r>    24.1815     0.0000    13.5000 </r>
       <r>    24.3247     0.0000    13.5000 </r>
       <r>    24.4680     0.0000    13.5000 </r>
       <r>    24.6112     0.0000    13.5000 </r>
       <r>    24.7544     0.0000    13.5000 </r>
       <r>    24.8977     0.0000    13.5000 </r>
       <r>    25.0409     0.0000    13.5000 </r>
       <r>    25.1841     0.0000    13.5000 </r>
       <r>    25.3273     0.0000    13.5000 </r>
       <r>    25.4706     0.0000    13.5000 </r>
       <r>    25.6138     0.0000    13.5000 </r>
       <r>    25.7570     0.0000    13.5000 </r>
       <r>    25.9002     0.0000    13.5000 </r>
       <r>    26.0435     0.0000    13.5000 </r>
       <r>    26.1867     0.0000    13.5000 </r>
       <r>    26.3299     0.0000    13.5000 </r>
       <r>    26.4732     0.1435    13.5205 </r>
       <r>    26.6164     6.6828    14.4777 </r>
       <r>    26.7596     0.1557    14.5000 </r>
       <r>    26.9028     0.0000    14.5000 </r>
       <r>    27.0461     0.7374    14.6056 </r>
       <r>    27.1893     9.6835    15.9926 </r>
       <r>    27.3325     0.0520    16.0000 </r>
       <r>    27.4757     0.0000    16.0000 </r>
       <r>    27.6190     0.0000    16.0000 </r>
       <r>    27.7622     0.0000    16.0000 </r>
       <r>    27.9054     0.0000    16.0000 </r>
       <r>    28.0487     0.0000    16.0000 </r>
       <r>    28.1919     0.0000    16.0000 </r>
       <r>    28.3351     0.0000    16.0000 </r>
       <r>    28.4783     0.0000    16.0000 </r>
       <r>    28.6216     0.0000    16.0000 </r>
       <r>    28.7648     0.0000    16.0000 </r>
       <r>    28.9080     0.0000    16.0000 </r>
       <r>    29.0512     0.0000    16.0000 </r>
      </set>
     </set>
    </array>
   </total>
   <partial>
    <array>
     <dimension dim="1">gridpoints</dimension>
     <dimension dim="2">spin</dimension>
     <dimension dim="3">ion</dimension>
     <field>energy</field>
     <field>    s</field>
     <field>   py</field>
     <field>   pz</field>
     <field>   px</field>
     <field>  dxy</field>
     <field>  dyz</field>
     <field>  dz2</field>
     <field>  dxz</field>
     <field>x2-y2</field>
     <set>
      <set comment="ion 1">
       <set comment="spin 1">
        <r>   -13.9169     0.0000     0.0000     0.0000     0.0000     0.0000     0.0000     0.0000     0.0000     0.0000 </r>
        <r>   -13.7737     0.0000     0.0000     0.0000     0.0000     0.0000     0.0000     0.0000     0.0000     0.0000 </r>
        <r>   -13.6305     0.0000     0.0000     0.0000     0.0000     0.0000     0.0000     0.0000     0.0000     0.0000 </r>
        <r>   -13.4873     0.0000     0.0000     0.0000     0.0000     0.0000     0.0000     0.0000     0.0000     0.0000 </r>
        <r>   -13.3440     0.0000     0.0000     0.0000     0.0000     0.0000     0.0000     0.0000     0.0000     0.0000 </r>
        <r>   -13.2008     0.0000     0.0000     0.0000     0.0000     0.0000     0.0000     0.0000     0.0000     0.0000 </r>
        <r>   -13.0576     0.0000     0.0000     0.0000     0.0000     0.0000     0.0000     0.0000     0.0000     0.0000 </r>
        <r>   -12.9144     0.0000     0.0000     0.0000     0.0000     0.0000     0.0000     0.0000     0.0000     0.0000 </r>
        <r>   -12.7711     0.0000     0.0000     0.0000     0.0000     0.0000     0.0000     0.0000     0.0000     0.0000 </r>
        <r>   -12.6279     0.0000     0.0000     0.0000     0.0000     0.0000     0.0000     0.0000     0.0000     0.0000 </r>
        <r>   -12.4847     0.0000     0.0000     0.0000     0.0000     0.0000     0.0000     0.0000     0.0000     0.0000 </r>
        <r>   -12.3414     0.0000     0.0000     0.0000     0.0000     0.0000     0.0000     0.0000     0.0000     0.0000 </r>
        <r>   -12.1982     0.0000     0.0000     0.0000     0.0000     0.0000     0.0000     0.0000     0.0000     0.0000 </r>
        <r>   -12.0550     0.0025     0.0000     0.0000     0.0000     0.0000     0.0000     0.0000     0.0000     0.0000 </r>
        <r>   -11.9118     0.4613     0.0000     0.0000     0.0000     0.0000     0.0000     0.0000     0.0000     0.0000 </r>
        <r>   -11.7685     0.0351     0.0000     0.0000     0.0000     0.0000     0.0000     0.0000     0.0000     0.0000 </r>
        <r>   -11.6253     0.0000     0.0000     0.0000     0.0000     0.0000     0.0000     0.0000     0.0000     0.0000 </r>
        <r>   -11.4821     0.0000     0.0000     0.0000     0.0000     0.0000     0.0000     0.0000     0.0000     0.0000 </r>
        <r>   -11.3389     0.0000     0.0000     0.0000     0.0000     0.0000     0.0000     0.0000     0.0000     0.0000 </r>
        <r>   -11.1956     0.0000     0.0000     0.0000     0.0000     0.0000     0.0000     0.0000     0.0000     0.0000 </r>
        <r>   -11.0524     0.0000     0.0000     0.0000     0.0000     0.0000     0.0000     0.0000     0.0000     0.0000 </r>
        <r>   -10.9092     0.0000     0.0000     0.0000     0.0000     0.0000     0.0000     0.0000     0.0000     0.0000 </r>
        <r>   -10.7659     0.0000     0.0000     0.0000     0.0000     0.0000     0.0000     0.0000     0.0000     0.0000 </r>
        <r>   -10.6227     0.0000     0.0000     0.0000     0.0000     0.0000     0.0000     0.0000     0.0000     0.0000 </r>
        <r>   -10.4795     0.0000     0.0000     0.0000     0.0000     0.0000     0.0000     0.0000     0.0000     0.0000 </r>
        <r>   -10.3363     0.0000     0.0000     0.0000     0.0000     0.0000     0.0000     0.0000     0.0000     0.0000 </r>
        <r>   -10.1930     0.0000     0.0000     0.0000     0.0000     0.0000     0.0000     0.0000     0.0000     0.0000 </r>
        <r>   -10.0498     0.0000     0.0000     0.0000     0.0000     0.0000     0.0000     0.0000     0.0000     0.0000 </r>
        <r>    -9.9066     0.0000     0.0000     0.0000     0.0000     0.0000     0.0000     0.0000     0.0000     0.0000 </r>
        <r>    -9.7634     0.0000     0.0000     0.0000     0.0000     0.0000     0.0000     0.0000     0.0000     0.0000 </r>
        <r>    -9.6201     0.0000     0.0000     0.0000     0.0000     0.0000     0.0000     0.0000     0.0000     0.0000 </r>
        <r>    -9.4769     0.0000     0.0000     0.0000     0.0000     0.0000     0.0000     0.0000     0.0000     0.0000 </r>
        <r>    -9.3337     0.0000     0.0000     0.0000     0.0000     0.0000     0.0000     0.0000     0.0000     0.0000 </r>
        <r>    -9.1904     0.0000     0.0000     0.0000     0.0000     0.0000     0.0000     0.0000     0.0000     0.0000 </r>
        <r>    -9.0472     0.0000     0.0000     0.0000     0.0000     0.0000     0.0000     0.0000     0.0000     0.0000 </r>
        <r>    -8.9040     0.0000     0.0000     0.0000     0.0000     0.0000     0.0000     0.0000     0.0000     0.0000 </r>
        <r>    -8.7608     0.0000     0.0000     0.0000     0.0000     0.0000     0.0000     0.0000     0.0000     0.0000 </r>
        <r>    -8.6175     0.0000     0.0000     0.0000     0.0000     0.0000     0.0000     0.0000     0.0000     0.0000 </r>
        <r>    -8.4743     0.0000     0.0000     0.0000     0.0000     0.0000     0.0000     0.0000     0.0000     0.0000 </r>
        <r>    -8.3311     0.0000     0.0000     0.0000     0.0000     0.0000     0.0000     0.0000     0.0000     0.0000 </r>
        <r>    -8.1879     0.0000     0.0000     0.0000     0.0000     0.0000     0.0000     0.0000     0.0000     0.0000 </r>
        <r>    -8.0446     0.0000     0.0000     0.0000     0.0000     0.0000     0.0000     0.0000     0.0000     0.0000 </r>
        <r>    -7.9014     0.0000     0.0000     0.0000     0.0000     0.0000     0.0000     0.0000     0.0000     0.0000 </r>
        <r>    -7.7582     0.0000     0.0000     0.0000     0.0000     0.0000     0.0000     0.0000     0.0000     0.0000 </r>
        <r>    -7.6149     0.0000     0.0000     0.0000     0.0000     0.0000     0.0000     0.0000     0.0000     0.0000 </r>
        <r>    -7.4717     0.0000     0.0000     0.0000     0.0000     0.0000     0.0000     0.0000     0.0000     0.0000 </r>
        <r>    -7.3285     0.0000     0.0000     0.0000     0.0000     0.0000     0.0000     0.0000     0.0000     0.0000 </r>
        <r>    -7.1853     0.0000     0.0000     0.0000     0.0000     0.0000     0.0000     0.0000     0.0000     0.0000 </r>
        <r>    -7.0420     0.0000     0.0000     0.0000     0.0000     0.0000     0.0000     0.0000     0.0000     0.0000 </r>
        <r>    -6.8988     0.0000     0.0000     0.0000     0.0000     0.0000     0.0000     0.0000     0.0000     0.0000 </r>
        <r>    -6.7556     0.0000     0.0000     0.0000     0.0000     0.0000     0.0000     0.0000     0.0000     0.0000 </r>
        <r>    -6.6123     0.0000     0.0000     0.0000     0.0000     0.0000     0.0000     0.0000     0.0000     0.0000 </r>
        <r>    -6.4691     0.0114     0.0001     0.0000     0.0011     0.0000     0.0000     0.0000     0.0000     0.0000 </r>
        <r>    -6.3259     1.9332     0.0234     0.0000     0.1869     0.0000     0.0000     0.0000     0.0000     0.0000 </r>
        <r>    -6.1827     0.1371     0.0017     0.0000     0.0133     0.0000     0.0000     0.0000     0.0000     0.0000 </r>
        <r>    -6.0394     0.0000     0.0000     0.0000     0.0000     0.0000     0.0000     0.0000     0.0000     0.0000 </r>
        <r>    -5.8962     0.0000     0.0000     0.0000     0.0000     0.0000     0.0000     0.0000     0.0000     0.0000 </r>
        <r>    -5.7530     0.0000     0.0000     0.0000     0.0000     0.0000     0.0000     0.0000     0.0000     0.0000 </r>
        <r>    -5.6098     0.0000     0.0000     0.0000     0.0000     0.0000     0.0000     0.0000     0.0000     0.0000 </r>
        <r>    -5.4665     0.0000     0.0000     0.0000     0.0000     0.0000     0.0000     0.0000     0.0000     0.0000 </r>
        <r>    -5.3233     0.0000     0.0000     0.0000     0.0000     0.0000     0.0000     0.0000     0.0000     0.0000 </r>
        <r>    -5.1801     0.0000     0.0000     0.0000     0.0000     0.0000     0.0000     0.0000     0.0000     0.0000 </r>
        <r>    -5.0368     0.0000     0.0000     0.0000     0.0000     0.0000     0.0000     0.0000     0.0000     0.0000 </r>
        <r>    -4.8936     0.0000     0.0000     0.0000     0.0000     0.0000     0.0000     0.0000     0.0000     0.0000 </r>
        <r>    -4.7504     0.0000     0.0000     0.0000     0.0000     0.0000     0.0000     0.0000     0.0000     0.0000 </r>
        <r>    -4.6072     0.0000     0.0000     0.0000     0.0000     0.0000     0.0000     0.0000     0.0000     0.0000 </r>
        <r>    -4.4639     0.0000     0.0000     0.0000     0.0000     0.0000     0.0000     0.0000     0.0000     0.0000 </r>
        <r>    -4.3207     0.0000     0.0000     0.0000     0.0000     0.0000     0.0000     0.0000     0.0000     0.0000 </r>
        <r>    -4.1775     0.0000     0.0000     0.0000     0.0000     0.0000     0.0000     0.0000     0.0000     0.0000 </r>
        <r>    -4.0343     0.0000     0.0000     0.0000     0.0000     0.0000     0.0000     0.0000     0.0000     0.0000 </r>
        <r>    -3.8910     0.0000     0.0000     0.0000     0.0000     0.0000     0.0000     0.0000     0.0000     0.0000 </r>
        <r>    -3.7478     0.1365     0.0351     0.0000     0.2807     0.0000     0.0000     0.0000     0.0000     0.0000 </r>
        <r>    -3.6046     0.4510     0.1160     0.0000     0.9278     0.0000     0.0000     0.0000     0.0000     0.0000 </r>
        <r>    -3.4613     0.0106     0.0019     0.0000     0.0042     0.0000     0.0000     0.0000     0.0000     0.0000 </r>
        <r>    -3.3181     2.0604     0.3647     0.0000     0.7293     0.0000     0.0000     0.0000     0.0000     0.0000 </r>
        <r>    -3.1749     0.1647     0.0291     0.0000     0.0583     0.0000     0.0000     0.0000     0.0000     0.0000 </r>
        <r>    -3.0317     0.0000     0.0000     0.0000     0.0000     0.0000     0.0000     0.0000     0.0000     0.0000 </r>
        <r>    -2.8884     0.0000     0.0000     0.0000     0.0000     0.0000     0.0000     0.0000     0.0000     0.0000 </r>
        <r>    -2.7452     0.0000     0.0000     0.0000     0.0000     0.0000     0.0000     0.0000     0.0000     0.0000 </r>
        <r>    -2.6020     0.0000     0.0000     0.0000     0.0000     0.0000     0.0000     0.0000     0.0000     0.0000 </r>
        <r>    -2.4588     0.0000     0.0000     0.0000     0.0000     0.0000     0.0000     0.0000     0.0000     0.0000 </r>
        <r>    -2.3155     0.0000     0.0000     0.0000     0.0000     0.0000     0.0000     0.0000     0.0000     0.0000 </r>
        <r>    -2.1723     0.0000     0.0000     0.0000     0.0000     0.0000     0.0000     0.0000     0.0000     0.0000 </r>
        <r>    -2.0291     0.0000     0.0000     0.0000     0.0000     0.0000     0.0000     0.0000     0.0000     0.0000 </r>
        <r>    -1.8858     0.0000     0.0000     0.0000     0.0000     0.0000     0.0000     0.0000     0.0000     0.0000 </r>
        <r>    -1.7426     0.0000     0.0000     0.0000     0.0000     0.0000     0.0000     0.0000     0.0000     0.0000 </r>
        <r>    -1.5994     0.0000     0.0000     0.0000     0.0000     0.0000     0.0000     0.0000     0.0000     0.0000 </r>
        <r>    -1.4562     0.0000     0.0000     0.0000     0.0000     0.0000     0.0000     0.0000     0.0000     0.0000 </r>
        <r>    -1.3129     0.0000     0.0000     0.0000     0.0000     0.0000     0.0000     0.0000     0.0000     0.0000 </r>
        <r>    -1.1697     0.0000     0.0000     0.0000     0.0000     0.0000     0.0000     0.0000     0.0000     0.0000 </r>
        <r>    -1.0265     0.0000     0.0000     0.0000     0.0000     0.0000     0.0000     0.0000     0.0000     0.0000 </r>
        <r>    -0.8833     0.0000     0.0000     0.0000     0.0000     0.0000     0.0000     0.0000     0.0000     0.0000 </r>
        <r>    -0.7400     0.0000     0.0000     0.0000     0.0000     0.0000     0.0000     0.0000     0.0000     0.0000 </r>
        <r>    -0.5968     0.0000     0.0000     0.0000     0.0000     0.0000     0.0000     0.0000     0.0000     0.0000 </r>
        <r>    -0.4536     0.0000     0.0000     0.0000     0.0000     0.0000     0.0000     0.0000     0.0000     0.0000 </r>
        <r>    -0.3103     0.0000     0.0000     0.0000     0.0000     0.0000     0.0000     0.0000     0.0000     0.0000 </r>
        <r>    -0.1671     0.0000     0.0000     0.0000     0.0000     0.0000     0.0000     0.0000     0.0000     0.0000 </r>
        <r>    -0.0239     0.0000     0.0000     0.0000     0.0000     0.0000     0.0000     0.0000     0.0000     0.0000 </r>
        <r>     0.1193     0.0000     0.0000     0.0000     0.0000     0.0000     0.0000     0.0000     0.0000     0.0000 </r>
        <r>     0.2626     0.0000     0.0000     0.0000     0.0000     0.0000     0.0000     0.0000     0.0000     0.0000 </r>
        <r>     0.4058     0.0000     0.0000     0.0000     0.0000     0.0000     0.0000     0.0000     0.0000     0.0000 </r>
        <r>     0.5490     0.0000     0.0000     0.0000     0.0000     0.0000     0.0000     0.0000     0.0000     0.0000 </r>
        <r>     0.6922     0.0000     0.0000     0.0000     0.0000     0.0000     0.0000     0.0000     0.0000     0.0000 </r>
        <r>     0.8355     0.0000     0.0000     0.0000     0.0000     0.0000     0.0000     0.0000     0.0000     0.0000 </r>
        <r>     0.9787     0.0000     0.0000     0.0000     0.0000     0.0000     0.0000     0.0000     0.0000     0.0000 </r>
        <r>     1.1219     0.0000     0.0000     0.0000     0.0000     0.0000     0.0000     0.0000     0.0000     0.0000 </r>
        <r>     1.2652     0.0000     0.0000     0.0000     0.0000     0.0000     0.0000     0.0000     0.0000     0.0000 </r>
        <r>     1.4084     0.0000     0.0000     0.0000     0.0000     0.0000     0.0000     0.0000     0.0000     0.0000 </r>
        <r>     1.5516     0.0000     0.0000     0.0000     0.0000     0.0000     0.0000     0.0000     0.0000     0.0000 </r>
        <r>     1.6948     0.0000     0.0000     0.0000     0.0000     0.0000     0.0000     0.0000     0.0000     0.0000 </r>
        <r>     1.8381     0.0000     0.0000     0.0000     0.0000     0.0000     0.0000     0.0000     0.0000     0.0000 </r>
        <r>     1.9813     0.0000     0.0000     0.0000     0.0000     0.0000     0.0000     0.0000     0.0000     0.0000 </r>
        <r>     2.1245     0.0000     0.0000     0.0000     0.0000     0.0000     0.0000     0.0000     0.0000     0.0000 </r>
        <r>     2.2677     0.0000     0.0000     0.0000     0.0000     0.0000     0.0000     0.0000     0.0000     0.0000 </r>
        <r>     2.4110     0.0000     0.0000     0.0000     0.0000     0.0000     0.0000     0.0000     0.0000     0.0000 </r>
        <r>     2.5542     0.0000     0.0000     0.0000     0.0000     0.0000     0.0000     0.0000     0.0000     0.0000 </r>
        <r>     2.6974     0.0000     0.0000     0.0000     0.0000     0.0000     0.0000     0.0000     0.0000     0.0000 </r>
        <r>     2.8407     0.0000     0.0000     0.0000     0.0000     0.0000     0.0000     0.0000     0.0000     0.0000 </r>
        <r>     2.9839     0.0000     0.0000     0.0000     0.0000     0.0000     0.0000     0.0000     0.0000     0.0000 </r>
        <r>     3.1271     0.0000     0.3271     0.4908     0.1635     0.0000     0.0000     0.0000     0.0000     0.0000 </r>
        <r>     3.2703     0.0000     0.8501     1.2749     0.4251     0.0000     0.0000     0.0000     0.0000     0.0000 </r>
        <r>     3.4136     0.0000     0.0003     0.0005     0.0002     0.0000     0.0000     0.0000     0.0000     0.0000 </r>
        <r>     3.5568     0.0000     0.0000     0.0000     0.0000     0.0000     0.0000     0.0000     0.0000     0.0000 </r>
        <r>     3.7000     0.0000     0.0000     0.0000     0.0000     0.0000     0.0000     0.0000     0.0000     0.0000 </r>
        <r>     3.8432     0.0000     0.0000     0.0000     0.0000     0.0000     0.0000     0.0000     0.0000     0.0000 </r>
        <r>     3.9865     0.0000     0.0000     0.0000     0.0000     0.0000     0.0000     0.0000     0.0000     0.0000 </r>
        <r>     4.1297     0.0000     0.0000     0.0000     0.0000     0.0000     0.0000     0.0000     0.0000     0.0000 </r>
        <r>     4.2729     0.0000     0.0000     0.0000     0.0000     0.0000     0.0000     0.0000     0.0000     0.0000 </r>
        <r>     4.4162     0.0000     0.0000     0.0000     0.0000     0.0000     0.0000     0.0000     0.0000     0.0000 </r>
        <r>     4.5594     0.0000     0.0000     0.0000     0.0000     0.0000     0.0000     0.0000     0.0000     0.0000 </r>
        <r>     4.7026     0.0000     0.0000     0.0000     0.0000     0.0000     0.0000     0.0000     0.0000     0.0000 </r>
        <r>     4.8458     0.0000     0.0000     0.0000     0.0000     0.0000     0.0000     0.0000     0.0000     0.0000 </r>
        <r>     4.9891     0.0000     0.0000     0.0000     0.0000     0.0000     0.0000     0.0000     0.0000     0.0000 </r>
        <r>     5.1323     0.0000     0.0000     0.0000     0.0000     0.0000     0.0000     0.0000     0.0000     0.0000 </r>
        <r>     5.2755     0.0000     0.0000     0.0000     0.0000     0.0000     0.0000     0.0000     0.0000     0.0000 </r>
        <r>     5.4187     0.0000     0.0000     0.0000     0.0000     0.0000     0.0000     0.0000     0.0000     0.0000 </r>
        <r>     5.5620     0.0000     0.0000     0.0000     0.0000     0.0000     0.0000     0.0000     0.0000     0.0000 </r>
        <r>     5.7052     0.0000     0.0000     0.0000     0.0000     0.0000     0.0000     0.0000     0.0000     0.0000 </r>
        <r>     5.8484     0.0000     0.0000     0.0000     0.0000     0.0000     0.0000     0.0000     0.0000     0.0000 </r>
        <r>     5.9917     0.0000     0.0000     0.0000     0.0000     0.0000     0.0000     0.0000     0.0000     0.0000 </r>
        <r>     6.1349     0.0000     0.0000     0.0000     0.0000     0.0000     0.0000     0.0000     0.0000     0.0000 </r>
        <r>     6.2781     0.0000     0.0000     0.0000     0.0000     0.0000     0.0000     0.0000     0.0000     0.0000 </r>
        <r>     6.4213     0.0000     0.0090     0.0102     0.0011     0.0000     0.0000     0.0000     0.0000     0.0000 </r>
        <r>     6.5646     0.0000     2.0903     2.3517     0.2613     0.0000     0.0000     0.0000     0.0000     0.0000 </r>
        <r>     6.7078     0.0000     0.1864     0.2096     0.0233     0.0000     0.0000     0.0000     0.0000     0.0000 </r>
        <r>     6.8510     0.0000     0.0000     0.0000     0.0000     0.0000     0.0000     0.0000     0.0000     0.0000 </r>
        <r>     6.9942     0.0000     0.0000     0.0000     0.0000     0.0000     0.0000     0.0000     0.0000     0.0000 </r>
        <r>     7.1375     0.0000     0.0000     0.0000     0.0000     0.0000     0.0000     0.0000     0.0000     0.0000 </r>
        <r>     7.2807     0.0000     0.0000     0.0000     0.0000     0.0000     0.0000     0.0000     0.0000     0.0000 </r>
        <r>     7.4239     0.0000     0.0000     0.0000     0.0000     0.0000     0.0000     0.0000     0.0000     0.0000 </r>
        <r>     7.5672     0.0000     0.0000     0.0000     0.0000     0.0000     0.0000     0.0000     0.0000     0.0000 </r>
        <r>     7.7104     0.0000     0.0000     0.0000     0.0000     0.0000     0.0000     0.0000     0.0000     0.0000 </r>
        <r>     7.8536     0.0000     0.0000     0.0000     0.0000     0.0000     0.0000     0.0000     0.0000     0.0000 </r>
        <r>     7.9968     0.0000     0.0000     0.0000     0.0000     0.0000     0.0000     0.0000     0.0000     0.0000 </r>
        <r>     8.1401     0.0000     0.0000     0.0000     0.0000     0.0000     0.0000     0.0000     0.0000     0.0000 </r>
        <r>     8.2833     0.0000     0.0000     0.0000     0.0000     0.0000     0.0000     0.0000     0.0000     0.0000 </r>
        <r>     8.4265     0.0000     0.0000     0.0000     0.0000     0.0000     0.0000     0.0000     0.0000     0.0000 </r>
        <r>     8.5697     0.0000     0.0000     0.0000     0.0000     0.0000     0.0000     0.0000     0.0000     0.0000 </r>
        <r>     8.7130     0.0000     0.0000     0.0000     0.0000     0.0000     0.0000     0.0000     0.0000     0.0000 </r>
        <r>     8.8562     0.0000     0.0000     0.0000     0.0000     0.0000     0.0000     0.0000     0.0000     0.0000 </r>
        <r>     8.9994     0.0000     0.0000     0.0000     0.0000     0.0000     0.0000     0.0000     0.0000     0.0000 </r>
        <r>     9.1427     0.0000     0.0000     0.0000     0.0000     0.0000     0.0000     0.0000     0.0000     0.0000 </r>
        <r>     9.2859     0.0000     0.1378     0.1379     0.1378     0.0000     0.0000     0.0000     0.0000     0.0000 </r>
        <r>     9.4291     0.0000     0.5276     0.5276     0.5276     0.0000     0.0000     0.0000     0.0000     0.0000 </r>
        <r>     9.5723     0.0000     0.0004     0.0004     0.0004     0.0000     0.0000     0.0000     0.0000     0.0000 </r>
        <r>     9.7156     0.0000     0.0000     0.0000     0.0000     0.0000     0.0000     0.0000     0.0000     0.0000 </r>
        <r>     9.8588     0.0000     0.0000     0.0000     0.0000     0.0000     0.0000     0.0000     0.0000     0.0000 </r>
        <r>    10.0020     0.0000     0.0000     0.0000     0.0000     0.0000     0.0000     0.0000     0.0000     0.0000 </r>
        <r>    10.1452     0.0000     0.0000     0.0000     0.0000     0.0000     0.0000     0.0000     0.0000     0.0000 </r>
        <r>    10.2885     0.0000     0.0000     0.0000     0.0000     0.0000     0.0000     0.0000     0.0000     0.0000 </r>
        <r>    10.4317     0.0000     0.0000     0.0000     0.0000     0.0000     0.0000     0.0000     0.0000     0.0000 </r>
        <r>    10.5749     0.0000     0.0000     0.0000     0.0000     0.0000     0.0000     0.0000     0.0000     0.0000 </r>
        <r>    10.7182     0.0000     0.0000     0.0000     0.0000     0.0000     0.0000     0.0000     0.0000     0.0000 </r>
        <r>    10.8614     0.0000     0.0000     0.0000     0.0000     0.0000     0.0000     0.0000     0.0000     0.0000 </r>
        <r>    11.0046     0.0000     0.0000     0.0000     0.0000     0.0000     0.0000     0.0000     0.0000     0.0000 </r>
        <r>    11.1478     0.0000     0.0000     0.0000     0.0000     0.0000     0.0000     0.0000     0.0000     0.0000 </r>
        <r>    11.2911     0.0000     0.0000     0.0000     0.0000     0.0000     0.0000     0.0000     0.0000     0.0000 </r>
        <r>    11.4343     0.0000     0.0000     0.0000     0.0000     0.0000     0.0000     0.0000     0.0000     0.0000 </r>
        <r>    11.5775     0.0000     0.0000     0.0000     0.0000     0.0000     0.0000     0.0000     0.0000     0.0000 </r>
        <r>    11.7207     0.0000     0.0000     0.0000     0.0000     0.0000     0.0000     0.0000     0.0000     0.0000 </r>
        <r>    11.8640     0.0000     0.0000     0.0000     0.0000     0.0000     0.0000     0.0000     0.0000     0.0000 </r>
        <r>    12.0072     0.0000     0.0000     0.0000     0.0000     0.0000     0.0000     0.0000     0.0000     0.0000 </r>
        <r>    12.1504     0.0000     0.0000     0.0000     0.0000     0.0000     0.0000     0.0000     0.0000     0.0000 </r>
        <r>    12.2937     0.0000     0.0000     0.0000     0.0000     0.0000     0.0000     0.0000     0.0000     0.0000 </r>
        <r>    12.4369     0.0000     0.0000     0.0000     0.0000     0.0000     0.0000     0.0000     0.0000     0.0000 </r>
        <r>    12.5801     0.0000     0.0000     0.0000     0.0000     0.0000     0.0000     0.0000     0.0000     0.0000 </r>
        <r>    12.7233     0.0000     0.0000     0.0000     0.0000     0.0000     0.0000     0.0000     0.0000     0.0000 </r>
        <r>    12.8666     0.0000     0.0000     0.0000     0.0000     0.0000     0.0000     0.0000     0.0000     0.0000 </r>
        <r>    13.0098     0.0000     0.0000     0.0000     0.0000     0.0000     0.0000     0.0000     0.0000     0.0000 </r>
        <r>    13.1530     0.0000     0.0000     0.0000     0.0000     0.0000     0.0000     0.0000     0.0000     0.0000 </r>
        <r>    13.2962     0.0000     0.0000     0.0000     0.0000     0.0000     0.0000     0.0000     0.0000     0.0000 </r>
        <r>    13.4395     0.0000     0.0000     0.0000     0.0000     0.0000     0.0000     0.0000     0.0000     0.0000 </r>
        <r>    13.5827     0.0000     0.0000     0.0000     0.0000     0.0000     0.0000     0.0000     0.0000     0.0000 </r>
        <r>    13.7259     0.0000     0.0000     0.0000     0.0000     0.0000     0.0000     0.0000     0.0000     0.0000 </r>
        <r>    13.8692     0.0000     0.0000     0.0000     0.0000     0.0000     0.0000     0.0000     0.0000     0.0000 </r>
        <r>    14.0124     0.0000     0.0000     0.0000     0.0000     0.0000     0.0000     0.0000     0.0000     0.0000 </r>
        <r>    14.1556     0.0000     0.0000     0.0000     0.0000     0.0000     0.0000     0.0000     0.0000     0.0000 </r>
        <r>    14.2988     0.0000     0.0000     0.0000     0.0000     0.0000     0.0000     0.0000     0.0000     0.0000 </r>
        <r>    14.4421     0.0000     0.0000     0.0000     0.0000     0.0000     0.0000     0.0000     0.0000     0.0000 </r>
        <r>    14.5853     0.0000     0.0000     0.0000     0.0000     0.0000     0.0000     0.0000     0.0000     0.0000 </r>
        <r>    14.7285     0.0000     0.0000     0.0000     0.0000     0.0000     0.0000     0.0000     0.0000     0.0000 </r>
        <r>    14.8717     0.0039     0.0007     0.0000     0.0015     0.0000     0.0000     0.0000     0.0000     0.0000 </r>
        <r>    15.0150     1.0446     0.1943     0.0000     0.3886     0.0000     0.0000     0.0000     0.0000     0.0000 </r>
        <r>    15.1582     0.1028     0.0191     0.0000     0.0382     0.0000     0.0000     0.0000     0.0000     0.0000 </r>
        <r>    15.3014     0.0000     0.0109     0.0109     0.0109     0.0000     0.0000     0.0000     0.0000     0.0000 </r>
        <r>    15.4447     0.0000     0.5027     0.5027     0.5027     0.0000     0.0000     0.0000     0.0000     0.0000 </r>
        <r>    15.5879     0.0000     0.0116     0.0116     0.0116     0.0000     0.0000     0.0000     0.0000     0.0000 </r>
        <r>    15.7311     0.0000     0.0000     0.0000     0.0000     0.0000     0.0000     0.0000     0.0000     0.0000 </r>
        <r>    15.8743     0.0000     0.0000     0.0000     0.0000     0.0000     0.0000     0.0000     0.0000     0.0000 </r>
        <r>    16.0176     0.0000     0.0000     0.0000     0.0000     0.0000     0.0000     0.0000     0.0000     0.0000 </r>
        <r>    16.1608     0.0000     0.0000     0.0000     0.0000     0.0000     0.0000     0.0000     0.0000     0.0000 </r>
        <r>    16.3040     0.0000     0.0000     0.0000     0.0000     0.0000     0.0000     0.0000     0.0000     0.0000 </r>
        <r>    16.4472     0.0000     0.0000     0.0000     0.0000     0.0000     0.0000     0.0000     0.0000     0.0000 </r>
        <r>    16.5905     0.0000     0.0000     0.0000     0.0000     0.0000     0.0000     0.0000     0.0000     0.0000 </r>
        <r>    16.7337     0.0000     0.0000     0.0000     0.0000     0.0000     0.0000     0.0000     0.0000     0.0000 </r>
        <r>    16.8769     0.0000     0.0000     0.0000     0.0000     0.0000     0.0000     0.0000     0.0000     0.0000 </r>
        <r>    17.0202     0.0000     0.0000     0.0000     0.0000     0.0000     0.0000     0.0000     0.0000     0.0000 </r>
        <r>    17.1634     0.0000     0.0000     0.0000     0.0000     0.0000     0.0000     0.0000     0.0000     0.0000 </r>
        <r>    17.3066     0.0000     0.0000     0.0000     0.0000     0.0000     0.0000     0.0000     0.0000     0.0000 </r>
        <r>    17.4498     0.0000     0.0000     0.0000     0.0000     0.0000     0.0000     0.0000     0.0000     0.0000 </r>
        <r>    17.5931     0.0000     0.0000     0.0000     0.0000     0.0000     0.0000     0.0000     0.0000     0.0000 </r>
        <r>    17.7363     0.0000     0.0000     0.0000     0.0000     0.0000     0.0000     0.0000     0.0000     0.0000 </r>
        <r>    17.8795     0.0000     0.0000     0.0000     0.0000     0.0000     0.0000     0.0000     0.0000     0.0000 </r>
        <r>    18.0227     0.0000     0.0000     0.0000     0.0000     0.0000     0.0000     0.0000     0.0000     0.0000 </r>
        <r>    18.1660     0.0000     0.0000     0.0000     0.0000     0.0000     0.0000     0.0000     0.0000     0.0000 </r>
        <r>    18.3092     0.0000     0.4323     0.4866     0.0540     0.0000     0.0000     0.0000     0.0000     0.0000 </r>
        <r>    18.4524     0.0000     1.2249     1.3778     0.1531     0.0000     0.0000     0.0000     0.0000     0.0000 </r>
        <r>    18.5957     0.0606     0.0011     0.0006     0.0046     0.0000     0.0000     0.0000     0.0000     0.0000 </r>
        <r>    18.7389     1.8532     0.0172     0.0000     0.1380     0.0000     0.0000     0.0000     0.0000     0.0000 </r>
        <r>    18.8821     0.0278     0.0003     0.0000     0.0021     0.0000     0.0000     0.0000     0.0000     0.0000 </r>
        <r>    19.0253     0.0000     0.0000     0.0000     0.0000     0.0000     0.0000     0.0000     0.0000     0.0000 </r>
        <r>    19.1686     0.0000     0.0000     0.0000     0.0000     0.0000     0.0000     0.0000     0.0000     0.0000 </r>
        <r>    19.3118     0.0000     0.0000     0.0000     0.0000     0.0000     0.0000     0.0000     0.0000     0.0000 </r>
        <r>    19.4550     0.0000     0.0000     0.0000     0.0000     0.0000     0.0000     0.0000     0.0000     0.0000 </r>
        <r>    19.5982     0.0000     0.0000     0.0000     0.0000     0.0000     0.0000     0.0000     0.0000     0.0000 </r>
        <r>    19.7415     0.0000     0.0000     0.0000     0.0000     0.0000     0.0000     0.0000     0.0000     0.0000 </r>
        <r>    19.8847     0.0000     0.0000     0.0000     0.0000     0.0000     0.0000     0.0000     0.0000     0.0000 </r>
        <r>    20.0279     0.0000     0.0000     0.0000     0.0000     0.0000     0.0000     0.0000     0.0000     0.0000 </r>
        <r>    20.1712     0.0000     0.0000     0.0000     0.0000     0.0000     0.0000     0.0000     0.0000     0.0000 </r>
        <r>    20.3144     0.0000     0.0000     0.0000     0.0000     0.0000     0.0000     0.0000     0.0000     0.0000 </r>
        <r>    20.4576     0.0000     0.0000     0.0000     0.0000     0.0000     0.0000     0.0000     0.0000     0.0000 </r>
        <r>    20.6008     0.0000     0.0000     0.0000     0.0000     0.0000     0.0000     0.0000     0.0000     0.0000 </r>
        <r>    20.7441     0.0000     0.0000     0.0000     0.0000     0.0000     0.0000     0.0000     0.0000     0.0000 </r>
        <r>    20.8873     0.0000     0.0000     0.0000     0.0000     0.0000     0.0000     0.0000     0.0000     0.0000 </r>
        <r>    21.0305     0.0000     0.0000     0.0000     0.0000     0.0000     0.0000     0.0000     0.0000     0.0000 </r>
        <r>    21.1737     0.0000     0.0000     0.0000     0.0000     0.0000     0.0000     0.0000     0.0000     0.0000 </r>
        <r>    21.3170     0.0000     0.0000     0.0000     0.0000     0.0000     0.0000     0.0000     0.0000     0.0000 </r>
        <r>    21.4602     0.0000     0.0000     0.0000     0.0000     0.0000     0.0000     0.0000     0.0000     0.0000 </r>
        <r>    21.6034     0.0000     0.0000     0.0000     0.0000     0.0000     0.0000     0.0000     0.0000     0.0000 </r>
        <r>    21.7467     0.0000     0.0000     0.0000     0.0000     0.0000     0.0000     0.0000     0.0000     0.0000 </r>
        <r>    21.8899     0.0000     0.0000     0.0000     0.0000     0.0000     0.0000     0.0000     0.0000     0.0000 </r>
        <r>    22.0331     0.0000     0.0000     0.0000     0.0000     0.0000     0.0000     0.0000     0.0000     0.0000 </r>
        <r>    22.1763     0.0000     0.0000     0.0000     0.0000     0.0000     0.0000     0.0000     0.0000     0.0000 </r>
        <r>    22.3196     0.0000     0.0000     0.0000     0.0000     0.0000     0.0000     0.0000     0.0000     0.0000 </r>
        <r>    22.4628     0.0000     0.0000     0.0000     0.0000     0.0000     0.0000     0.0000     0.0000     0.0000 </r>
        <r>    22.6060     0.0000     0.0000     0.0000     0.0000     0.0000     0.0000     0.0000     0.0000     0.0000 </r>
        <r>    22.7492     0.0000     0.0000     0.0000     0.0000     0.0000     0.0000     0.0000     0.0000     0.0000 </r>
        <r>    22.8925     0.0000     0.0000     0.0000     0.0000     0.0000     0.0000     0.0000     0.0000     0.0000 </r>
        <r>    23.0357     0.0000     0.0000     0.0000     0.0000     0.0000     0.0000     0.0000     0.0000     0.0000 </r>
        <r>    23.1789     0.3068     0.0000     0.0000     0.0000     0.0000     0.0000     0.0000     0.0000     0.0000 </r>
        <r>    23.3222     0.3821     0.0000     0.0000     0.0000     0.0000     0.0000     0.0000     0.0000     0.0000 </r>
        <r>    23.4654     0.0000     0.0000     0.0000     0.0000     0.0000     0.0000     0.0000     0.0000     0.0000 </r>
        <r>    23.6086     0.0000     0.0000     0.0000     0.0000     0.0000     0.0000     0.0000     0.0000     0.0000 </r>
        <r>    23.7518     0.0000     0.0000     0.0000     0.0000     0.0000     0.0000     0.0000     0.0000     0.0000 </r>
        <r>    23.8951     0.0000     0.0000     0.0000     0.0000     0.0000     0.0000     0.0000     0.0000     0.0000 </r>
        <r>    24.0383     0.0000     0.0000     0.0000     0.0000     0.0000     0.0000     0.0000     0.0000     0.0000 </r>
        <r>    24.1815     0.0000     0.0000     0.0000     0.0000     0.0000     0.0000     0.0000     0.0000     0.0000 </r>
        <r>    24.3247     0.0000     0.0000     0.0000     0.0000     0.0000     0.0000     0.0000     0.0000     0.0000 </r>
        <r>    24.4680     0.0000     0.0000     0.0000     0.0000     0.0000     0.0000     0.0000     0.0000     0.0000 </r>
        <r>    24.6112     0.0000     0.0000     0.0000     0.0000     0.0000     0.0000     0.0000     0.0000     0.0000 </r>
        <r>    24.7544     0.0000     0.0000     0.0000     0.0000     0.0000     0.0000     0.0000     0.0000     0.0000 </r>
        <r>    24.8977     0.0000     0.0000     0.0000     0.0000     0.0000     0.0000     0.0000     0.0000     0.0000 </r>
        <r>    25.0409     0.0000     0.0000     0.0000     0.0000     0.0000     0.0000     0.0000     0.0000     0.0000 </r>
        <r>    25.1841     0.0000     0.0000     0.0000     0.0000     0.0000     0.0000     0.0000     0.0000     0.0000 </r>
        <r>    25.3273     0.0000     0.0000     0.0000     0.0000     0.0000     0.0000     0.0000     0.0000     0.0000 </r>
        <r>    25.4706     0.0000     0.0000     0.0000     0.0000     0.0000     0.0000     0.0000     0.0000     0.0000 </r>
        <r>    25.6138     0.0000     0.0000     0.0000     0.0000     0.0000     0.0000     0.0000     0.0000     0.0000 </r>
        <r>    25.7570     0.0000     0.0000     0.0000     0.0000     0.0000     0.0000     0.0000     0.0000     0.0000 </r>
        <r>    25.9002     0.0000     0.0000     0.0000     0.0000     0.0000     0.0000     0.0000     0.0000     0.0000 </r>
        <r>    26.0435     0.0000     0.0000     0.0000     0.0000     0.0000     0.0000     0.0000     0.0000     0.0000 </r>
        <r>    26.1867     0.0000     0.0000     0.0000     0.0000     0.0000     0.0000     0.0000     0.0000     0.0000 </r>
        <r>    26.3299     0.0000     0.0000     0.0000     0.0000     0.0000     0.0000     0.0000     0.0000     0.0000 </r>
        <r>    26.4732     0.0002     0.0043     0.0000     0.0341     0.0000     0.0000     0.0000     0.0000     0.0000 </r>
        <r>    26.6164     0.0112     0.1983     0.0000     1.5861     0.0000     0.0000     0.0000     0.0000     0.0000 </r>
        <r>    26.7596     0.0003     0.0046     0.0000     0.0369     0.0000     0.0000     0.0000     0.0000     0.0000 </r>
        <r>    26.9028     0.0000     0.0000     0.0000     0.0000     0.0000     0.0000     0.0000     0.0000     0.0000 </r>
        <r>    27.0461     0.0000     0.1047     0.1573     0.0524     0.0000     0.0000     0.0000     0.0000     0.0000 </r>
        <r>    27.1893     0.0000     1.3762     2.0641     0.6881     0.0000     0.0000     0.0000     0.0000     0.0000 </r>
        <r>    27.3325     0.0000     0.0074     0.0111     0.0037     0.0000     0.0000     0.0000     0.0000     0.0000 </r>
        <r>    27.4757     0.0000     0.0000     0.0000     0.0000     0.0000     0.0000     0.0000     0.0000     0.0000 </r>
        <r>    27.6190     0.0000     0.0000     0.0000     0.0000     0.0000     0.0000     0.0000     0.0000     0.0000 </r>
        <r>    27.7622     0.0000     0.0000     0.0000     0.0000     0.0000     0.0000     0.0000     0.0000     0.0000 </r>
        <r>    27.9054     0.0000     0.0000     0.0000     0.0000     0.0000     0.0000     0.0000     0.0000     0.0000 </r>
        <r>    28.0487     0.0000     0.0000     0.0000     0.0000     0.0000     0.0000     0.0000     0.0000     0.0000 </r>
        <r>    28.1919     0.0000     0.0000     0.0000     0.0000     0.0000     0.0000     0.0000     0.0000     0.0000 </r>
        <r>    28.3351     0.0000     0.0000     0.0000     0.0000     0.0000     0.0000     0.0000     0.0000     0.0000 </r>
        <r>    28.4783     0.0000     0.0000     0.0000     0.0000     0.0000     0.0000     0.0000     0.0000     0.0000 </r>
        <r>    28.6216     0.0000     0.0000     0.0000     0.0000     0.0000     0.0000     0.0000     0.0000     0.0000 </r>
        <r>    28.7648     0.0000     0.0000     0.0000     0.0000     0.0000     0.0000     0.0000     0.0000     0.0000 </r>
        <r>    28.9080     0.0000     0.0000     0.0000     0.0000     0.0000     0.0000     0.0000     0.0000     0.0000 </r>
        <r>    29.0512     0.0000     0.0000     0.0000     0.0000     0.0000     0.0000     0.0000     0.0000     0.0000 </r>
       </set>
      </set>
      <set comment="ion 2">
       <set comment="spin 1">
        <r>   -13.9169     0.0000     0.0000     0.0000     0.0000     0.0000     0.0000     0.0000     0.0000     0.0000 </r>
        <r>   -13.7737     0.0000     0.0000     0.0000     0.0000     0.0000     0.0000     0.0000     0.0000     0.0000 </r>
        <r>   -13.6305     0.0000     0.0000     0.0000     0.0000     0.0000     0.0000     0.0000     0.0000     0.0000 </r>
        <r>   -13.4873     0.0000     0.0000     0.0000     0.0000     0.0000     0.0000     0.0000     0.0000     0.0000 </r>
        <r>   -13.3440     0.0000     0.0000     0.0000     0.0000     0.0000     0.0000     0.0000     0.0000     0.0000 </r>
        <r>   -13.2008     0.0000     0.0000     0.0000     0.0000     0.0000     0.0000     0.0000     0.0000     0.0000 </r>
        <r>   -13.0576     0.0000     0.0000     0.0000     0.0000     0.0000     0.0000     0.0000     0.0000     0.0000 </r>
        <r>   -12.9144     0.0000     0.0000     0.0000     0.0000     0.0000     0.0000     0.0000     0.0000     0.0000 </r>
        <r>   -12.7711     0.0000     0.0000     0.0000     0.0000     0.0000     0.0000     0.0000     0.0000     0.0000 </r>
        <r>   -12.6279     0.0000     0.0000     0.0000     0.0000     0.0000     0.0000     0.0000     0.0000     0.0000 </r>
        <r>   -12.4847     0.0000     0.0000     0.0000     0.0000     0.0000     0.0000     0.0000     0.0000     0.0000 </r>
        <r>   -12.3414     0.0000     0.0000     0.0000     0.0000     0.0000     0.0000     0.0000     0.0000     0.0000 </r>
        <r>   -12.1982     0.0000     0.0000     0.0000     0.0000     0.0000     0.0000     0.0000     0.0000     0.0000 </r>
        <r>   -12.0550     0.0025     0.0000     0.0000     0.0000     0.0000     0.0000     0.0000     0.0000     0.0000 </r>
        <r>   -11.9118     0.4613     0.0000     0.0000     0.0000     0.0000     0.0000     0.0000     0.0000     0.0000 </r>
        <r>   -11.7685     0.0351     0.0000     0.0000     0.0000     0.0000     0.0000     0.0000     0.0000     0.0000 </r>
        <r>   -11.6253     0.0000     0.0000     0.0000     0.0000     0.0000     0.0000     0.0000     0.0000     0.0000 </r>
        <r>   -11.4821     0.0000     0.0000     0.0000     0.0000     0.0000     0.0000     0.0000     0.0000     0.0000 </r>
        <r>   -11.3389     0.0000     0.0000     0.0000     0.0000     0.0000     0.0000     0.0000     0.0000     0.0000 </r>
        <r>   -11.1956     0.0000     0.0000     0.0000     0.0000     0.0000     0.0000     0.0000     0.0000     0.0000 </r>
        <r>   -11.0524     0.0000     0.0000     0.0000     0.0000     0.0000     0.0000     0.0000     0.0000     0.0000 </r>
        <r>   -10.9092     0.0000     0.0000     0.0000     0.0000     0.0000     0.0000     0.0000     0.0000     0.0000 </r>
        <r>   -10.7659     0.0000     0.0000     0.0000     0.0000     0.0000     0.0000     0.0000     0.0000     0.0000 </r>
        <r>   -10.6227     0.0000     0.0000     0.0000     0.0000     0.0000     0.0000     0.0000     0.0000     0.0000 </r>
[...]
        <r>    15.8743     0.0000     0.0000     0.0000     0.0000     0.0000     0.0000     0.0000     0.0000     0.0000 </r>
        <r>    16.0176     0.0000     0.0000     0.0000     0.0000     0.0000     0.0000     0.0000     0.0000     0.0000 </r>
        <r>    16.1608     0.0000     0.0000     0.0000     0.0000     0.0000     0.0000     0.0000     0.0000     0.0000 </r>
        <r>    16.3040     0.0000     0.0000     0.0000     0.0000     0.0000     0.0000     0.0000     0.0000     0.0000 </r>
        <r>    16.4472     0.0000     0.0000     0.0000     0.0000     0.0000     0.0000     0.0000     0.0000     0.0000 </r>
        <r>    16.5905     0.0000     0.0000     0.0000     0.0000     0.0000     0.0000     0.0000     0.0000     0.0000 </r>
        <r>    16.7337     0.0000     0.0000     0.0000     0.0000     0.0000     0.0000     0.0000     0.0000     0.0000 </r>
        <r>    16.8769     0.0000     0.0000     0.0000     0.0000     0.0000     0.0000     0.0000     0.0000     0.0000 </r>
        <r>    17.0202     0.0000     0.0000     0.0000     0.0000     0.0000     0.0000     0.0000     0.0000     0.0000 </r>
        <r>    17.1634     0.0000     0.0000     0.0000     0.0000     0.0000     0.0000     0.0000     0.0000     0.0000 </r>
        <r>    17.3066     0.0000     0.0000     0.0000     0.0000     0.0000     0.0000     0.0000     0.0000     0.0000 </r>
        <r>    17.4498     0.0000     0.0000     0.0000     0.0000     0.0000     0.0000     0.0000     0.0000     0.0000 </r>
        <r>    17.5931     0.0000     0.0000     0.0000     0.0000     0.0000     0.0000     0.0000     0.0000     0.0000 </r>
        <r>    17.7363     0.0000     0.0000     0.0000     0.0000     0.0000     0.0000     0.0000     0.0000     0.0000 </r>
        <r>    17.8795     0.0000     0.0000     0.0000     0.0000     0.0000     0.0000     0.0000     0.0000     0.0000 </r>
        <r>    18.0227     0.0000     0.0000     0.0000     0.0000     0.0000     0.0000     0.0000     0.0000     0.0000 </r>
        <r>    18.1660     0.0000     0.0000     0.0000     0.0000     0.0000     0.0000     0.0000     0.0000     0.0000 </r>
        <r>    18.3092     0.0000     0.4323     0.4866     0.0540     0.0000     0.0000     0.0000     0.0000     0.0000 </r>
        <r>    18.4524     0.0000     1.2249     1.3778     0.1531     0.0000     0.0000     0.0000     0.0000     0.0000 </r>
        <r>    18.5957     0.0606     0.0011     0.0006     0.0046     0.0000     0.0000     0.0000     0.0000     0.0000 </r>
        <r>    18.7389     1.8532     0.0172     0.0000     0.1380     0.0000     0.0000     0.0000     0.0000     0.0000 </r>
        <r>    18.8821     0.0278     0.0003     0.0000     0.0021     0.0000     0.0000     0.0000     0.0000     0.0000 </r>
        <r>    19.0253     0.0000     0.0000     0.0000     0.0000     0.0000     0.0000     0.0000     0.0000     0.0000 </r>
        <r>    19.1686     0.0000     0.0000     0.0000     0.0000     0.0000     0.0000     0.0000     0.0000     0.0000 </r>
        <r>    19.3118     0.0000     0.0000     0.0000     0.0000     0.0000     0.0000     0.0000     0.0000     0.0000 </r>
        <r>    19.4550     0.0000     0.0000     0.0000     0.0000     0.0000     0.0000     0.0000     0.0000     0.0000 </r>
        <r>    19.5982     0.0000     0.0000     0.0000     0.0000     0.0000     0.0000     0.0000     0.0000     0.0000 </r>
        <r>    19.7415     0.0000     0.0000     0.0000     0.0000     0.0000     0.0000     0.0000     0.0000     0.0000 </r>
        <r>    19.8847     0.0000     0.0000     0.0000     0.0000     0.0000     0.0000     0.0000     0.0000     0.0000 </r>
        <r>    20.0279     0.0000     0.0000     0.0000     0.0000     0.0000     0.0000     0.0000     0.0000     0.0000 </r>
        <r>    20.1712     0.0000     0.0000     0.0000     0.0000     0.0000     0.0000     0.0000     0.0000     0.0000 </r>
        <r>    20.3144     0.0000     0.0000     0.0000     0.0000     0.0000     0.0000     0.0000     0.0000     0.0000 </r>
        <r>    20.4576     0.0000     0.0000     0.0000     0.0000     0.0000     0.0000     0.0000     0.0000     0.0000 </r>
        <r>    20.6008     0.0000     0.0000     0.0000     0.0000     0.0000     0.0000     0.0000     0.0000     0.0000 </r>
        <r>    20.7441     0.0000     0.0000     0.0000     0.0000     0.0000     0.0000     0.0000     0.0000     0.0000 </r>
        <r>    20.8873     0.0000     0.0000     0.0000     0.0000     0.0000     0.0000     0.0000     0.0000     0.0000 </r>
        <r>    21.0305     0.0000     0.0000     0.0000     0.0000     0.0000     0.0000     0.0000     0.0000     0.0000 </r>
        <r>    21.1737     0.0000     0.0000     0.0000     0.0000     0.0000     0.0000     0.0000     0.0000     0.0000 </r>
        <r>    21.3170     0.0000     0.0000     0.0000     0.0000     0.0000     0.0000     0.0000     0.0000     0.0000 </r>
        <r>    21.4602     0.0000     0.0000     0.0000     0.0000     0.0000     0.0000     0.0000     0.0000     0.0000 </r>
        <r>    21.6034     0.0000     0.0000     0.0000     0.0000     0.0000     0.0000     0.0000     0.0000     0.0000 </r>
        <r>    21.7467     0.0000     0.0000     0.0000     0.0000     0.0000     0.0000     0.0000     0.0000     0.0000 </r>
        <r>    21.8899     0.0000     0.0000     0.0000     0.0000     0.0000     0.0000     0.0000     0.0000     0.0000 </r>
        <r>    22.0331     0.0000     0.0000     0.0000     0.0000     0.0000     0.0000     0.0000     0.0000     0.0000 </r>
        <r>    22.1763     0.0000     0.0000     0.0000     0.0000     0.0000     0.0000     0.0000     0.0000     0.0000 </r>
        <r>    22.3196     0.0000     0.0000     0.0000     0.0000     0.0000     0.0000     0.0000     0.0000     0.0000 </r>
        <r>    22.4628     0.0000     0.0000     0.0000     0.0000     0.0000     0.0000     0.0000     0.0000     0.0000 </r>
        <r>    22.6060     0.0000     0.0000     0.0000     0.0000     0.0000     0.0000     0.0000     0.0000     0.0000 </r>
        <r>    22.7492     0.0000     0.0000     0.0000     0.0000     0.0000     0.0000     0.0000     0.0000     0.0000 </r>
        <r>    22.8925     0.0000     0.0000     0.0000     0.0000     0.0000     0.0000     0.0000     0.0000     0.0000 </r>
        <r>    23.0357     0.0000     0.0000     0.0000     0.0000     0.0000     0.0000     0.0000     0.0000     0.0000 </r>
        <r>    23.1789     0.3068     0.0000     0.0000     0.0000     0.0000     0.0000     0.0000     0.0000     0.0000 </r>
        <r>    23.3222     0.3821     0.0000     0.0000     0.0000     0.0000     0.0000     0.0000     0.0000     0.0000 </r>
        <r>    23.4654     0.0000     0.0000     0.0000     0.0000     0.0000     0.0000     0.0000     0.0000     0.0000 </r>
        <r>    23.6086     0.0000     0.0000     0.0000     0.0000     0.0000     0.0000     0.0000     0.0000     0.0000 </r>
        <r>    23.7518     0.0000     0.0000     0.0000     0.0000     0.0000     0.0000     0.0000     0.0000     0.0000 </r>
        <r>    23.8951     0.0000     0.0000     0.0000     0.0000     0.0000     0.0000     0.0000     0.0000     0.0000 </r>
        <r>    24.0383     0.0000     0.0000     0.0000     0.0000     0.0000     0.0000     0.0000     0.0000     0.0000 </r>
        <r>    24.1815     0.0000     0.0000     0.0000     0.0000     0.0000     0.0000     0.0000     0.0000     0.0000 </r>
        <r>    24.3247     0.0000     0.0000     0.0000     0.0000     0.0000     0.0000     0.0000     0.0000     0.0000 </r>
        <r>    24.4680     0.0000     0.0000     0.0000     0.0000     0.0000     0.0000     0.0000     0.0000     0.0000 </r>
        <r>    24.6112     0.0000     0.0000     0.0000     0.0000     0.0000     0.0000     0.0000     0.0000     0.0000 </r>
        <r>    24.7544     0.0000     0.0000     0.0000     0.0000     0.0000     0.0000     0.0000     0.0000     0.0000 </r>
        <r>    24.8977     0.0000     0.0000     0.0000     0.0000     0.0000     0.0000     0.0000     0.0000     0.0000 </r>
        <r>    25.0409     0.0000     0.0000     0.0000     0.0000     0.0000     0.0000     0.0000     0.0000     0.0000 </r>
        <r>    25.1841     0.0000     0.0000     0.0000     0.0000     0.0000     0.0000     0.0000     0.0000     0.0000 </r>
        <r>    25.3273     0.0000     0.0000     0.0000     0.0000     0.0000     0.0000     0.0000     0.0000     0.0000 </r>
        <r>    25.4706     0.0000     0.0000     0.0000     0.0000     0.0000     0.0000     0.0000     0.0000     0.0000 </r>
        <r>    25.6138     0.0000     0.0000     0.0000     0.0000     0.0000     0.0000     0.0000     0.0000     0.0000 </r>
        <r>    25.7570     0.0000     0.0000     0.0000     0.0000     0.0000     0.0000     0.0000     0.0000     0.0000 </r>
        <r>    25.9002     0.0000     0.0000     0.0000     0.0000     0.0000     0.0000     0.0000     0.0000     0.0000 </r>
        <r>    26.0435     0.0000     0.0000     0.0000     0.0000     0.0000     0.0000     0.0000     0.0000     0.0000 </r>
        <r>    26.1867     0.0000     0.0000     0.0000     0.0000     0.0000     0.0000     0.0000     0.0000     0.0000 </r>
        <r>    26.3299     0.0000     0.0000     0.0000     0.0000     0.0000     0.0000     0.0000     0.0000     0.0000 </r>
        <r>    26.4732     0.0002     0.0043     0.0000     0.0341     0.0000     0.0000     0.0000     0.0000     0.0000 </r>
        <r>    26.6164     0.0112     0.1983     0.0000     1.5861     0.0000     0.0000     0.0000     0.0000     0.0000 </r>
        <r>    26.7596     0.0003     0.0046     0.0000     0.0369     0.0000     0.0000     0.0000     0.0000     0.0000 </r>
        <r>    26.9028     0.0000     0.0000     0.0000     0.0000     0.0000     0.0000     0.0000     0.0000     0.0000 </r>
        <r>    27.0461     0.0000     0.1047     0.1573     0.0524     0.0000     0.0000     0.0000     0.0000     0.0000 </r>
        <r>    27.1893     0.0000     1.3762     2.0641     0.6881     0.0000     0.0000     0.0000     0.0000     0.0000 </r>
        <r>    27.3325     0.0000     0.0074     0.0111     0.0037     0.0000     0.0000     0.0000     0.0000     0.0000 </r>
        <r>    27.4757     0.0000     0.0000     0.0000     0.0000     0.0000     0.0000     0.0000     0.0000     0.0000 </r>
        <r>    27.6190     0.0000     0.0000     0.0000     0.0000     0.0000     0.0000     0.0000     0.0000     0.0000 </r>
        <r>    27.7622     0.0000     0.0000     0.0000     0.0000     0.0000     0.0000     0.0000     0.0000     0.0000 </r>
        <r>    27.9054     0.0000     0.0000     0.0000     0.0000     0.0000     0.0000     0.0000     0.0000     0.0000 </r>
        <r>    28.0487     0.0000     0.0000     0.0000     0.0000     0.0000     0.0000     0.0000     0.0000     0.0000 </r>
        <r>    28.1919     0.0000     0.0000     0.0000     0.0000     0.0000     0.0000     0.0000     0.0000     0.0000 </r>
        <r>    28.3351     0.0000     0.0000     0.0000     0.0000     0.0000     0.0000     0.0000     0.0000     0.0000 </r>
        <r>    28.4783     0.0000     0.0000     0.0000     0.0000     0.0000     0.0000     0.0000     0.0000     0.0000 </r>
        <r>    28.6216     0.0000     0.0000     0.0000     0.0000     0.0000     0.0000     0.0000     0.0000     0.0000 </r>
        <r>    28.7648     0.0000     0.0000     0.0000     0.0000     0.0000     0.0000     0.0000     0.0000     0.0000 </r>
        <r>    28.9080     0.0000     0.0000     0.0000     0.0000     0.0000     0.0000     0.0000     0.0000     0.0000 </r>
        <r>    29.0512     0.0000     0.0000     0.0000     0.0000     0.0000     0.0000     0.0000     0.0000     0.0000 </r>
       </set>
      </set>
     </set>
    </array>
   </partial>
  </dos>
  <projected>
   <eigenvalues>
    <array>
     <dimension dim="1">band</dimension>
     <dimension dim="2">kpoint</dimension>
     <dimension dim="3">spin</dimension>
     <field>eigene</field>
     <field>occ</field>
     <set>
      <set comment="spin 1">
       <set comment="kpoint 1">
        <r>  -11.9638    1.0000 </r>
        <r>    9.3147    1.0000 </r>
        <r>    9.3148    1.0000 </r>
        <r>    9.3148    1.0000 </r>
        <r>   15.3735    0.0000 </r>
        <r>   15.3735    0.0000 </r>
        <r>   15.3735    0.0000 </r>
        <r>   23.1838    0.0000 </r>
       </set>
       <set comment="kpoint 2">
        <r>   -6.3792    1.0000 </r>
        <r>   -3.7219    1.0000 </r>
        <r>    6.5152    1.0000 </r>
        <r>    6.5153    1.0000 </r>
        <r>   18.3318    0.0000 </r>
        <r>   18.3319    0.0000 </r>
        <r>   18.6615    0.0000 </r>
        <r>   26.5454    0.0000 </r>
       </set>
       <set comment="kpoint 3">
        <r>   -3.3693    1.0000 </r>
        <r>   -3.3693    1.0000 </r>
        <r>    3.1479    1.0000 </r>
        <r>    3.1479    1.0000 </r>
        <r>   14.9674    0.0000 </r>
        <r>   14.9674    0.0000 </r>
        <r>   27.0981    0.0000 </r>
        <r>   27.0981    0.0000 </r>
       </set>
      </set>
     </set>
    </array>
   </eigenvalues>
   <array>
    <dimension dim="1">ion</dimension>
    <dimension dim="2">band</dimension>
    <dimension dim="3">kpoint</dimension>
    <dimension dim="4">spin</dimension>
    <field>    s</field>
    <field>   py</field>
    <field>   pz</field>
    <field>   px</field>
    <field>  dxy</field>
    <field>  dyz</field>
    <field>  dz2</field>
    <field>  dxz</field>
    <field>x2-y2</field>
    <set>
     <set comment="spin1">
      <set comment="kpoint 1">
       <set comment="band 1">
        <r>  0.2858  0.0000  0.0000  0.0000  0.0000  0.0000  0.0000  0.0000  0.0000 </r>
        <r>  0.2858  0.0000  0.0000  0.0000  0.0000  0.0000  0.0000  0.0000  0.0000 </r>
       </set>
       <set comment="band 2">
        <r>  0.0000  0.0472  0.2494  0.0850  0.0000  0.0000  0.0000  0.0000  0.0000 </r>
        <r>  0.0000  0.0472  0.2494  0.0850  0.0000  0.0000  0.0000  0.0000  0.0000 </r>
       </set>
       <set comment="band 3">
        <r>  0.0000  0.2355  0.1067  0.0392  0.0000  0.0000  0.0000  0.0000  0.0000 </r>
        <r>  0.0000  0.2355  0.1067  0.0392  0.0000  0.0000  0.0000  0.0000  0.0000 </r>
       </set>
       <set comment="band 4">
        <r>  0.0000  0.0988  0.0254  0.2573  0.0000  0.0000  0.0000  0.0000  0.0000 </r>
        <r>  0.0000  0.0988  0.0254  0.2573  0.0000  0.0000  0.0000  0.0000  0.0000 </r>
       </set>
       <set comment="band 5">
        <r>  0.0000  0.0233  0.2010  0.0766  0.0000  0.0000  0.0000  0.0000  0.0000 </r>
        <r>  0.0000  0.0233  0.2010  0.0766  0.0000  0.0000  0.0000  0.0000  0.0000 </r>
       </set>
       <set comment="band 6">
        <r>  0.0000  0.0469  0.0438  0.2102  0.0000  0.0000  0.0000  0.0000  0.0000 </r>
        <r>  0.0000  0.0469  0.0438  0.2102  0.0000  0.0000  0.0000  0.0000  0.0000 </r>
       </set>
       <set comment="band 7">
        <r>  0.0000  0.2307  0.0561  0.0141  0.0000  0.0000  0.0000  0.0000  0.0000 </r>
        <r>  0.0000  0.2307  0.0561  0.0141  0.0000  0.0000  0.0000  0.0000  0.0000 </r>
       </set>
       <set comment="band 8">
        <r>  0.3947  0.0000  0.0000  0.0000  0.0000  0.0000  0.0000  0.0000  0.0000 </r>
        <r>  0.3947  0.0000  0.0000  0.0000  0.0000  0.0000  0.0000  0.0000  0.0000 </r>
       </set>
      </set>
      <set comment="kpoint 2">
       <set comment="band 1">
        <r>  0.2982  0.0036  0.0000  0.0288  0.0000  0.0000  0.0000  0.0000  0.0000 </r>
        <r>  0.2982  0.0036  0.0000  0.0288  0.0000  0.0000  0.0000  0.0000  0.0000 </r>
       </set>
       <set comment="band 2">
        <r>  0.0842  0.0216  0.0000  0.1732  0.0000  0.0000  0.0000  0.0000  0.0000 </r>
        <r>  0.0842  0.0216  0.0000  0.1732  0.0000  0.0000  0.0000  0.0000  0.0000 </r>
       </set>
       <set comment="band 3">
        <r>  0.0000  0.0920  0.2648  0.0115  0.0000  0.0000  0.0000  0.0000  0.0000 </r>
        <r>  0.0000  0.0920  0.2648  0.0115  0.0000  0.0000  0.0000  0.0000  0.0000 </r>
       </set>
       <set comment="band 4">
        <r>  0.0000  0.2354  0.1035  0.0294  0.0000  0.0000  0.0000  0.0000  0.0000 </r>
        <r>  0.0000  0.2354  0.1035  0.0294  0.0000  0.0000  0.0000  0.0000  0.0000 </r>
       </set>
       <set comment="band 5">
        <r>  0.0000  0.0561  0.2040  0.0070  0.0000  0.0000  0.0000  0.0000  0.0000 </r>
        <r>  0.0000  0.0561  0.2040  0.0070  0.0000  0.0000  0.0000  0.0000  0.0000 </r>
       </set>
       <set comment="band 6">
        <r>  0.0000  0.1813  0.0631  0.0227  0.0000  0.0000  0.0000  0.0000  0.0000 </r>
        <r>  0.0000  0.1813  0.0631  0.0227  0.0000  0.0000  0.0000  0.0000  0.0000 </r>
       </set>
       <set comment="band 7">
        <r>  0.2781  0.0026  0.0000  0.0207  0.0000  0.0000  0.0000  0.0000  0.0000 </r>
        <r>  0.2781  0.0026  0.0000  0.0207  0.0000  0.0000  0.0000  0.0000  0.0000 </r>
       </set>
       <set comment="band 8">
        <r>  0.0017  0.0297  0.0000  0.2373  0.0000  0.0000  0.0000  0.0000  0.0000 </r>
        <r>  0.0017  0.0297  0.0000  0.2373  0.0000  0.0000  0.0000  0.0000  0.0000 </r>
       </set>
      </set>
      <set comment="kpoint 3">
       <set comment="band 1">
        <r>  0.2134  0.0378  0.0000  0.0756  0.0000  0.0000  0.0000  0.0000  0.0000 </r>
        <r>  0.2134  0.0378  0.0000  0.0756  0.0000  0.0000  0.0000  0.0000  0.0000 </r>
       </set>
       <set comment="band 2">
        <r>  0.2134  0.0378  0.0000  0.0756  0.0000  0.0000  0.0000  0.0000  0.0000 </r>
        <r>  0.2134  0.0378  0.0000  0.0756  0.0000  0.0000  0.0000  0.0000  0.0000 </r>
       </set>
       <set comment="band 3">
        <r>  0.0000  0.0000  0.3373  0.0000  0.0000  0.0000  0.0000  0.0000  0.0000 </r>
        <r>  0.0000  0.0000  0.3373  0.0000  0.0000  0.0000  0.0000  0.0000  0.0000 </r>
       </set>
       <set comment="band 4">
        <r>  0.0000  0.2249  0.0000  0.1124  0.0000  0.0000  0.0000  0.0000  0.0000 </r>
        <r>  0.0000  0.2249  0.0000  0.1124  0.0000  0.0000  0.0000  0.0000  0.0000 </r>
       </set>
       <set comment="band 5">
        <r>  0.1099  0.0204  0.0000  0.0409  0.0000  0.0000  0.0000  0.0000  0.0000 </r>
        <r>  0.1099  0.0204  0.0000  0.0409  0.0000  0.0000  0.0000  0.0000  0.0000 </r>
       </set>
       <set comment="band 6">
        <r>  0.1099  0.0204  0.0000  0.0409  0.0000  0.0000  0.0000  0.0000  0.0000 </r>
        <r>  0.1099  0.0204  0.0000  0.0409  0.0000  0.0000  0.0000  0.0000  0.0000 </r>
       </set>
       <set comment="band 7">
        <r>  0.0000  0.0000  0.4263  0.0000  0.0000  0.0000  0.0000  0.0000  0.0000 </r>
        <r>  0.0000  0.0000  0.4263  0.0000  0.0000  0.0000  0.0000  0.0000  0.0000 </r>
       </set>
       <set comment="band 8">
        <r>  0.0000  0.2842  0.0000  0.1421  0.0000  0.0000  0.0000  0.0000  0.0000 </r>
        <r>  0.0000  0.2842  0.0000  0.1421  0.0000  0.0000  0.0000  0.0000  0.0000 </r>
       </set>
      </set>
     </set>
    </set>
   </array>
  </projected>
 </calculation>
 <structure name="finalpos" >
  <crystal>
   <varray name="basis" >
    <v>       2.18050236       0.00000000       1.25891346 </v>
    <v>       0.72683412       2.05579703       1.25891346 </v>
    <v>       0.00000000       0.00000000       2.51782692 </v>
   </varray>
   <i name="volume">     11.28658789 </i>
   <varray name="rec_basis" >
    <v>       0.45860991      -0.16214311       0.00000000 </v>
    <v>       0.00000000       0.48642934       0.00000000 </v>
    <v>      -0.22930496      -0.16214311       0.39716789 </v>
   </varray>
  </crystal>
  <varray name="positions" >
   <v>       0.87500000       0.87500000       0.87500000 </v>
   <v>       0.12500000       0.12500000       0.12500000 </v>
  </varray>
 </structure>
</modeling>
