<?xml version="1.0" encoding="ISO-8859-1"?>
<modeling>
 <generator>
  <i name="program" type="string">vasp </i>
  <i name="version" type="string">5.4.4.18Apr17-6-g9f103f2a35  </i>
  <i name="subversion" type="string">(build Jan 25 2021 16:16:55) complex            parallel </i>
  <i name="platform" type="string">LinuxIFC </i>
  <i name="date" type="string">2026 04 30 </i>
  <i name="time" type="string">12:30:01 </i>
 </generator>
 <incar>
  <i type="string" name="SYSTEM"> r-GeO2 ENCUT convergence test</i>
  <i type="int" name="ISTART">     0</i>
  <i type="string" name="PREC">accurate</i>
  <i type="string" name="ALGO"> Normal</i>
  <i type="int" name="ICHARG">     2</i>
  <i type="int" name="IBRION">    -1</i>
  <i name="EDIFF">      0.00010000</i>
  <i type="int" name="NSW">     0</i>
  <i name="ENCUT">    500.00000000</i>
  <i type="logical" name="LREAL"> F  </i>
  <i type="int" name="ISMEAR">     0</i>
  <i name="SIGMA">      0.05000000</i>
  <i type="logical" name="LWAVE"> F  </i>
  <i type="logical" name="LCHARG"> F  </i>
  <i type="int" name="LORBIT">    11</i>
  <i type="logical" name="LASPH"> T  </i>
  <v type="int" name="KPOINT_BSE">    -1     0     0     0</v>
  <i type="logical" name="LASPH"> T  </i>
 </incar>
 <structure name="primitive_cell" >
  <crystal>
   <varray name="basis" >
    <v>       2.18050236       0.00000000       1.25891346 </v>
    <v>       0.72683412       2.05579703       1.25891346 </v>
    <v>       0.00000000       0.00000000       2.51782692 </v>
   </varray>
   <i name="volume">     11.28658789 </i>
   <varray name="rec_basis" >
    <v>       0.45860991      -0.16214311       0.00000000 </v>
    <v>       0.00000000       0.48642934       0.00000000 </v>
    <v>      -0.22930496      -0.16214311       0.39716789 </v>
   </varray>
  </crystal>
  <varray name="positions" >
   <v>      -0.12500000      -0.12500000      -0.12500000 </v>
   <v>       0.12500000       0.12500000       0.12500000 </v>
  </varray>
 </structure>
 <varray name="primitive_index" >
  <v type="int" >        1 </v>
  <v type="int" >        2 </v>
 </varray>
 <kpoints>
  <generation param="Gamma">
   <v type="int" name="divisions">      15       15       15 </v>
   <v name="usershift">      0.00000000       0.00000000       0.00000000 </v>
   <v name="genvec1">      0.06666667      -0.00000000       0.00000000 </v>
   <v name="genvec2">      0.00000000       0.06666667       0.00000000 </v>
   <v name="genvec3">      0.00000000       0.00000000       0.06666667 </v>
   <v name="shift">      0.00000000       0.00000000       0.00000000 </v>
  </generation>
  <varray name="kpointlist" >
   <v>       0.00000000       0.00000000       0.00000000 </v>
   <v>       0.06666667      -0.00000000       0.00000000 </v>
   <v>       0.13333333      -0.00000000       0.00000000 </v>
   <v>       0.20000000      -0.00000000       0.00000000 </v>
   <v>       0.26666667       0.00000000       0.00000000 </v>
   <v>       0.33333333      -0.00000000       0.00000000 </v>
   <v>       0.40000000      -0.00000000       0.00000000 </v>
   <v>       0.46666667      -0.00000000       0.00000000 </v>
   <v>       0.06666667       0.06666667       0.00000000 </v>
   <v>       0.13333333       0.06666667       0.00000000 </v>
   <v>       0.20000000       0.06666667       0.00000000 </v>
   <v>       0.26666667       0.06666667       0.00000000 </v>
   <v>       0.33333333       0.06666667       0.00000000 </v>
   <v>       0.40000000       0.06666667       0.00000000 </v>
   <v>       0.46666667       0.06666667       0.00000000 </v>
   <v>      -0.46666667       0.06666667       0.00000000 </v>
   <v>      -0.40000000       0.06666667       0.00000000 </v>
   <v>      -0.33333333       0.06666667       0.00000000 </v>
   <v>      -0.26666667       0.06666667       0.00000000 </v>
   <v>      -0.20000000       0.06666667       0.00000000 </v>
   <v>      -0.13333333       0.06666667       0.00000000 </v>
   <v>      -0.06666667       0.06666667       0.00000000 </v>
   <v>       0.13333333       0.13333333       0.00000000 </v>
   <v>       0.20000000       0.13333333       0.00000000 </v>
   <v>       0.26666667       0.13333333       0.00000000 </v>
   <v>       0.33333333       0.13333333       0.00000000 </v>
   <v>       0.40000000       0.13333333       0.00000000 </v>
   <v>       0.46666667       0.13333333       0.00000000 </v>
   <v>      -0.46666667       0.13333333       0.00000000 </v>
   <v>      -0.40000000       0.13333333       0.00000000 </v>
   <v>      -0.33333333       0.13333333       0.00000000 </v>
   <v>      -0.26666667       0.13333333       0.00000000 </v>
   <v>      -0.20000000       0.13333333       0.00000000 </v>
   <v>      -0.13333333       0.13333333       0.00000000 </v>
   <v>       0.20000000       0.20000000       0.00000000 </v>
   <v>       0.26666667       0.20000000       0.00000000 </v>
   <v>       0.33333333       0.20000000       0.00000000 </v>
   <v>       0.40000000       0.20000000       0.00000000 </v>
   <v>       0.46666667       0.20000000       0.00000000 </v>
   <v>      -0.46666667       0.20000000       0.00000000 </v>
   <v>      -0.40000000       0.20000000       0.00000000 </v>
   <v>      -0.33333333       0.20000000       0.00000000 </v>
   <v>      -0.26666667       0.20000000       0.00000000 </v>
   <v>      -0.20000000       0.20000000       0.00000000 </v>
   <v>       0.26666667       0.26666667       0.00000000 </v>
   <v>       0.33333333       0.26666667       0.00000000 </v>
   <v>       0.40000000       0.26666667       0.00000000 </v>
   <v>       0.46666667       0.26666667       0.00000000 </v>
   <v>      -0.46666667       0.26666667       0.00000000 </v>
   <v>      -0.40000000       0.26666667       0.00000000 </v>
   <v>      -0.33333333       0.26666667       0.00000000 </v>
   <v>      -0.26666667       0.26666667       0.00000000 </v>
   <v>       0.33333333       0.33333333       0.00000000 </v>
   <v>       0.40000000       0.33333333       0.00000000 </v>
   <v>       0.46666667       0.33333333       0.00000000 </v>
   <v>      -0.46666667       0.33333333       0.00000000 </v>
   <v>      -0.40000000       0.33333333       0.00000000 </v>
   <v>      -0.33333333       0.33333333       0.00000000 </v>
   <v>       0.40000000       0.40000000       0.00000000 </v>
   <v>       0.46666667       0.40000000       0.00000000 </v>
   <v>      -0.46666667       0.40000000       0.00000000 </v>
   <v>      -0.40000000       0.40000000       0.00000000 </v>
   <v>       0.46666667       0.46666667       0.00000000 </v>
   <v>      -0.46666667       0.46666667       0.00000000 </v>
   <v>       0.20000000       0.13333333       0.06666667 </v>
   <v>       0.26666667       0.13333333       0.06666667 </v>
   <v>       0.33333333       0.13333333       0.06666667 </v>
   <v>       0.40000000       0.13333333       0.06666667 </v>
   <v>       0.46666667       0.13333333       0.06666667 </v>
   <v>      -0.46666667       0.13333333       0.06666667 </v>
   <v>       0.26666667       0.20000000       0.06666667 </v>
   <v>       0.33333333       0.20000000       0.06666667 </v>
   <v>       0.40000000       0.20000000       0.06666667 </v>
   <v>       0.46666667       0.20000000       0.06666667 </v>
   <v>      -0.46666667       0.20000000       0.06666667 </v>
   <v>      -0.40000000       0.20000000       0.06666667 </v>
   <v>      -0.33333333       0.20000000       0.06666667 </v>
   <v>      -0.26666667       0.20000000       0.06666667 </v>
   <v>      -0.20000000       0.20000000       0.06666667 </v>
   <v>      -0.13333333       0.20000000       0.06666667 </v>
   <v>       0.33333333       0.26666667       0.06666667 </v>
   <v>       0.40000000       0.26666667       0.06666667 </v>
   <v>       0.46666667       0.26666667       0.06666667 </v>
   <v>      -0.46666667       0.26666667       0.06666667 </v>
   <v>      -0.40000000       0.26666667       0.06666667 </v>
   <v>      -0.33333333       0.26666667       0.06666667 </v>
   <v>      -0.26666667       0.26666667       0.06666667 </v>
   <v>      -0.20000000       0.26666667       0.06666667 </v>
   <v>       0.40000000       0.33333333       0.06666667 </v>
   <v>       0.46666667       0.33333333       0.06666667 </v>
   <v>      -0.46666667       0.33333333       0.06666667 </v>
   <v>      -0.40000000       0.33333333       0.06666667 </v>
   <v>      -0.33333333       0.33333333       0.06666667 </v>
   <v>      -0.26666667       0.33333333       0.06666667 </v>
   <v>       0.46666667       0.40000000       0.06666667 </v>
   <v>      -0.46666667       0.40000000       0.06666667 </v>
   <v>      -0.40000000       0.40000000       0.06666667 </v>
   <v>      -0.33333333       0.40000000       0.06666667 </v>
   <v>      -0.46666667       0.46666667       0.06666667 </v>
   <v>      -0.40000000       0.46666667       0.06666667 </v>
   <v>       0.40000000       0.26666667       0.13333333 </v>
   <v>       0.46666667       0.26666667       0.13333333 </v>
   <v>      -0.46666667       0.26666667       0.13333333 </v>
   <v>      -0.40000000       0.26666667       0.13333333 </v>
   <v>       0.46666667       0.33333333       0.13333333 </v>
   <v>      -0.46666667       0.33333333       0.13333333 </v>
   <v>      -0.40000000       0.33333333       0.13333333 </v>
   <v>      -0.33333333       0.33333333       0.13333333 </v>
   <v>      -0.26666667       0.33333333       0.13333333 </v>
   <v>      -0.20000000       0.33333333       0.13333333 </v>
   <v>      -0.46666667       0.40000000       0.13333333 </v>
   <v>      -0.40000000       0.40000000       0.13333333 </v>
   <v>      -0.33333333       0.40000000       0.13333333 </v>
   <v>      -0.26666667       0.40000000       0.13333333 </v>
   <v>      -0.40000000       0.46666667       0.13333333 </v>
   <v>      -0.33333333       0.46666667       0.13333333 </v>
   <v>      -0.40000000       0.40000000       0.20000000 </v>
   <v>      -0.33333333       0.40000000       0.20000000 </v>
   <v>      -0.33333333       0.46666667       0.20000000 </v>
   <v>      -0.26666667       0.46666667       0.20000000 </v>
  </varray>
  <varray name="weights" >
   <v>       0.00029630 </v>
   <v>       0.00237037 </v>
   <v>       0.00237037 </v>
   <v>       0.00237037 </v>
   <v>       0.00237037 </v>
   <v>       0.00237037 </v>
   <v>       0.00237037 </v>
   <v>       0.00237037 </v>
   <v>       0.00177778 </v>
   <v>       0.00711111 </v>
   <v>       0.00711111 </v>
   <v>       0.00711111 </v>
   <v>       0.00711111 </v>
   <v>       0.00711111 </v>
   <v>       0.00711111 </v>
   <v>       0.00711111 </v>
   <v>       0.00711111 </v>
   <v>       0.00711111 </v>
   <v>       0.00711111 </v>
   <v>       0.00711111 </v>
   <v>       0.00711111 </v>
   <v>       0.00355556 </v>
   <v>       0.00177778 </v>
   <v>       0.00711111 </v>
   <v>       0.00711111 </v>
   <v>       0.00711111 </v>
   <v>       0.00711111 </v>
   <v>       0.00711111 </v>
   <v>       0.00711111 </v>
   <v>       0.00711111 </v>
   <v>       0.00711111 </v>
   <v>       0.00711111 </v>
   <v>       0.00711111 </v>
   <v>       0.00355556 </v>
   <v>       0.00177778 </v>
   <v>       0.00711111 </v>
   <v>       0.00711111 </v>
   <v>       0.00711111 </v>
   <v>       0.00711111 </v>
   <v>       0.00711111 </v>
   <v>       0.00711111 </v>
   <v>       0.00711111 </v>
   <v>       0.00711111 </v>
   <v>       0.00355556 </v>
   <v>       0.00177778 </v>
   <v>       0.00711111 </v>
   <v>       0.00711111 </v>
   <v>       0.00711111 </v>
   <v>       0.00711111 </v>
   <v>       0.00711111 </v>
   <v>       0.00711111 </v>
   <v>       0.00355556 </v>
   <v>       0.00177778 </v>
   <v>       0.00711111 </v>
   <v>       0.00711111 </v>
   <v>       0.00711111 </v>
   <v>       0.00711111 </v>
   <v>       0.00355556 </v>
   <v>       0.00177778 </v>
   <v>       0.00711111 </v>
   <v>       0.00711111 </v>
   <v>       0.00355556 </v>
   <v>       0.00177778 </v>
   <v>       0.00355556 </v>
   <v>       0.00711111 </v>
   <v>       0.01422222 </v>
   <v>       0.01422222 </v>
   <v>       0.01422222 </v>
   <v>       0.01422222 </v>
   <v>       0.01422222 </v>
   <v>       0.00711111 </v>
   <v>       0.01422222 </v>
   <v>       0.01422222 </v>
   <v>       0.01422222 </v>
   <v>       0.01422222 </v>
   <v>       0.01422222 </v>
   <v>       0.01422222 </v>
   <v>       0.01422222 </v>
   <v>       0.01422222 </v>
   <v>       0.00711111 </v>
   <v>       0.00711111 </v>
   <v>       0.01422222 </v>
   <v>       0.01422222 </v>
   <v>       0.01422222 </v>
   <v>       0.01422222 </v>
   <v>       0.01422222 </v>
   <v>       0.01422222 </v>
   <v>       0.00711111 </v>
   <v>       0.00711111 </v>
   <v>       0.01422222 </v>
   <v>       0.01422222 </v>
   <v>       0.01422222 </v>
   <v>       0.01422222 </v>
   <v>       0.00711111 </v>
   <v>       0.00711111 </v>
   <v>       0.01422222 </v>
   <v>       0.01422222 </v>
   <v>       0.00711111 </v>
   <v>       0.00711111 </v>
   <v>       0.00711111 </v>
   <v>       0.00711111 </v>
   <v>       0.01422222 </v>
   <v>       0.01422222 </v>
   <v>       0.01422222 </v>
   <v>       0.00711111 </v>
   <v>       0.01422222 </v>
   <v>       0.01422222 </v>
   <v>       0.01422222 </v>
   <v>       0.01422222 </v>
   <v>       0.00711111 </v>
   <v>       0.00711111 </v>
   <v>       0.01422222 </v>
   <v>       0.01422222 </v>
   <v>       0.00711111 </v>
   <v>       0.00711111 </v>
   <v>       0.00711111 </v>
   <v>       0.00711111 </v>
   <v>       0.01422222 </v>
   <v>       0.00711111 </v>
   <v>       0.00711111 </v>
  </varray>
 </kpoints>
 <parameters>
  <separator name="general" >
   <i type="string" name="SYSTEM">r-GeO2 ENCUT convergence test</i>
   <i type="logical" name="LCOMPAT"> F  </i>
  </separator>
  <separator name="electronic" >
   <i type="string" name="PREC">accura</i>
   <i name="ENMAX">    500.00000000</i>
   <i name="ENAUG">    644.87300000</i>
   <i name="EDIFF">      0.00010000</i>
   <i type="int" name="IALGO">    38</i>
   <i type="int" name="IWAVPR">    10</i>
   <i type="int" name="NBANDS">     8</i>
   <i name="NELECT">      8.00000000</i>
   <i type="int" name="TURBO">     0</i>
   <i type="int" name="IRESTART">     0</i>
   <i type="int" name="NREBOOT">     0</i>
   <i type="int" name="NMIN">     0</i>
   <i name="EREF">      0.00000000</i>
   <separator name="electronic smearing" >
    <i type="int" name="ISMEAR">     0</i>
    <i name="SIGMA">      0.05000000</i>
    <i name="KSPACING">      0.50000000</i>
    <i type="logical" name="KGAMMA"> T  </i>
   </separator>
   <separator name="electronic projectors" >
    <i type="logical" name="LREAL"> F  </i>
    <v name="ROPT">      0.00000000</v>
    <i type="int" name="LMAXPAW">  -100</i>
    <i type="int" name="LMAXMIX">     2</i>
    <i type="logical" name="NLSPLINE"> F  </i>
   </separator>
   <separator name="electronic startup" >
    <i type="int" name="ISTART">     0</i>
    <i type="int" name="ICHARG">     2</i>
    <i type="int" name="INIWAV">     1</i>
   </separator>
   <separator name="electronic spin" >
    <i type="int" name="ISPIN">     1</i>
    <i type="logical" name="LNONCOLLINEAR"> F  </i>
    <v name="MAGMOM">      1.00000000      1.00000000</v>
    <i name="NUPDOWN">     -1.00000000</i>
    <i type="logical" name="LSORBIT"> F  </i>
    <v name="SAXIS">      0.00000000      0.00000000      1.00000000</v>
    <i type="logical" name="LSPIRAL"> F  </i>
    <v name="QSPIRAL">      0.00000000      0.00000000      0.00000000</v>
    <i type="logical" name="LZEROZ"> F  </i>
   </separator>
   <separator name="electronic exchange-correlation" >
    <i type="logical" name="LASPH"> T  </i>
    <i type="logical" name="LMETAGGA"> F  </i>
   </separator>
   <separator name="electronic convergence" >
    <i type="int" name="NELM">    60</i>
    <i type="int" name="NELMDL">    -5</i>
    <i type="int" name="NELMIN">     2</i>
    <i name="ENINI">    500.00000000</i>
    <separator name="electronic convergence detail" >
     <i type="logical" name="LDIAG"> T  </i>
     <i type="logical" name="LSUBROT"> F  </i>
     <i name="WEIMIN">      0.00000000</i>
     <i name="EBREAK">      0.00000313</i>
     <i name="DEPER">      0.30000000</i>
     <i type="int" name="NRMM">     4</i>
     <i name="TIME">      0.40000000</i>
    </separator>
   </separator>
   <separator name="electronic mixer" >
    <i name="AMIX">      0.40000000</i>
    <i name="BMIX">      1.00000000</i>
    <i name="AMIN">      0.10000000</i>
    <i name="AMIX_MAG">      1.60000000</i>
    <i name="BMIX_MAG">      1.00000000</i>
    <separator name="electronic mixer details" >
     <i type="int" name="IMIX">     4</i>
     <i type="logical" name="MIXFIRST"> F  </i>
     <i type="int" name="MAXMIX">   -45</i>
     <i name="WC">    100.00000000</i>
     <i type="int" name="INIMIX">     1</i>
     <i type="int" name="MIXPRE">     1</i>
     <i type="int" name="MREMOVE">     5</i>
    </separator>
   </separator>
   <separator name="electronic dipolcorrection" >
    <i type="logical" name="LDIPOL"> F  </i>
    <i type="logical" name="LMONO"> F  </i>
    <i type="int" name="IDIPOL">     0</i>
    <i name="EPSILON">      1.00000000</i>
    <v name="DIPOL">   -100.00000000   -100.00000000   -100.00000000</v>
    <i name="EFIELD">      0.00000000</i>
   </separator>
  </separator>
  <separator name="grids" >
   <i type="int" name="NGX">    18</i>
   <i type="int" name="NGY">    18</i>
   <i type="int" name="NGZ">    18</i>
   <i type="int" name="NGXF">    36</i>
   <i type="int" name="NGYF">    36</i>
   <i type="int" name="NGZF">    36</i>
   <i type="logical" name="ADDGRID"> F  </i>
  </separator>
  <separator name="ionic" >
   <i type="int" name="NSW">     0</i>
   <i type="int" name="IBRION">    -1</i>
   <i type="int" name="MDALGO">     0</i>
   <i type="int" name="ISIF">     2</i>
   <i name="PSTRESS">      0.00000000</i>
   <i name="EDIFFG">      0.00100000</i>
   <i type="int" name="NFREE">     0</i>
   <i name="POTIM">      0.50000000</i>
   <i name="SMASS">     -3.00000000</i>
   <i name="SCALEE">      1.00000000</i>
  </separator>
  <separator name="ionic md" >
   <i name="TEBEG">      0.00010000</i>
   <i name="TEEND">      0.00010000</i>
   <i type="int" name="NBLOCK">     1</i>
   <i type="int" name="KBLOCK">     1</i>
   <i type="int" name="NPACO">   256</i>
   <i name="APACO">     16.00000000</i>
  </separator>
  <separator name="symmetry" >
   <i type="int" name="ISYM">     2</i>
   <i name="SYMPREC">      0.00001000</i>
  </separator>
  <separator name="dos" >
   <i type="int" name="LORBIT">    11</i>
   <v name="RWIGS">     -1.00000000</v>
   <i type="int" name="NEDOS">   301</i>
   <i name="EMIN">     10.00000000</i>
   <i name="EMAX">    -10.00000000</i>
   <i name="EFERMI">      0.00000000</i>
  </separator>
  <separator name="writing" >
   <i type="int" name="NWRITE">     2</i>
   <i type="logical" name="LWAVE"> F  </i>
   <i type="logical" name="LDOWNSAMPLE"> F  </i>
   <i type="logical" name="LCHARG"> F  </i>
   <i type="logical" name="LPARD"> F  </i>
   <i type="logical" name="LVTOT"> F  </i>
   <i type="logical" name="LVHAR"> F  </i>
   <i type="logical" name="LELF"> F  </i>
   <i type="logical" name="LOPTICS"> F  </i>
   <v name="STM">      0.00000000      0.00000000      0.00000000      0.00000000      0.00000000      0.00000000      0.00000000</v>
  </separator>
  <separator name="performance" >
   <i type="int" name="NPAR">     2</i>
   <i type="int" name="NSIM">     4</i>
   <i type="int" name="NBLK">    -1</i>
   <i type="logical" name="LPLANE"> T  </i>
   <i type="logical" name="LSCALAPACK"> T  </i>
   <i type="logical" name="LSCAAWARE"> F  </i>
   <i type="logical" name="LSCALU"> F  </i>
   <i type="logical" name="LASYNC"> F  </i>
   <i type="logical" name="LORBITALREAL"> F  </i>
  </separator>
  <separator name="miscellaneous" >
   <i type="int" name="IDIOT">     3</i>
   <i type="int" name="ISPECIAL">     0</i>
   <i type="logical" name="LMUSIC"> F  </i>
   <v name="POMASS">     12.01100000</v>
   <v name="DARWINR">      0.00000000</v>
   <v name="DARWINV">      1.00000000</v>
   <i type="logical" name="LCORR"> T  </i>
  </separator>
  <i type="logical" name="GGA_COMPAT"> T  </i>
  <i type="logical" name="LBERRY"> F  </i>
  <i type="int" name="ICORELEVEL">     0</i>
  <i type="logical" name="LDAU"> F  </i>
  <i type="int" name="I_CONSTRAINED_M">     0</i>
  <separator name="electronic exchange-correlation" >
   <i type="string" name="GGA">--</i>
   <i type="int" name="VOSKOWN">     0</i>
   <i type="logical" name="LHFCALC"> F  </i>
   <i type="string" name="PRECFOCK"></i>
   <i type="logical" name="LSYMGRAD"> F  </i>
   <i type="logical" name="LHFONE"> F  </i>
   <i type="logical" name="LRHFCALC"> F  </i>
   <i type="logical" name="LTHOMAS"> F  </i>
   <i type="logical" name="LMODELHF"> F  </i>
   <i name="ENCUT4O">     -1.00000000</i>
   <i type="int" name="EXXOEP">     0</i>
   <i type="int" name="FOURORBIT">     0</i>
   <i name="AEXX">      0.00000000</i>
   <i name="HFALPHA">      0.00000000</i>
   <i name="MCALPHA">      0.00000000</i>
   <i name="ALDAX">      1.00000000</i>
   <i name="AGGAX">      1.00000000</i>
   <i name="ALDAC">      1.00000000</i>
   <i name="AGGAC">      1.00000000</i>
   <i type="int" name="NKREDX">     1</i>
   <i type="int" name="NKREDY">     1</i>
   <i type="int" name="NKREDZ">     1</i>
   <i type="logical" name="SHIFTRED"> F  </i>
   <i type="logical" name="ODDONLY"> F  </i>
   <i type="logical" name="EVENONLY"> F  </i>
   <i type="int" name="LMAXFOCK">     0</i>
   <i type="int" name="NMAXFOCKAE">     0</i>
   <i type="logical" name="LFOCKAEDFT"> F  </i>
   <i name="HFSCREEN">      0.00000000</i>
   <i name="HFSCREENC">      0.00000000</i>
   <i type="int" name="NBANDSGWLOW">     0</i>
  </separator>
  <separator name="vdW DFT" >
   <i type="logical" name="LUSE_VDW"> F  </i>
   <i name="Zab_VDW">     -0.84910000</i>
   <i name="PARAM1">      0.12340000</i>
   <i name="PARAM2">      1.00000000</i>
   <i name="PARAM3">      0.00000000</i>
  </separator>
  <separator name="model GW" >
   <i type="int" name="MODEL_GW">     0</i>
   <i name="MODEL_EPS0">      3.38597637</i>
   <i name="MODEL_ALPHA">      1.00000000</i>
  </separator>
  <separator name="linear response parameters" >
   <i type="logical" name="LEPSILON"> F  </i>
   <i type="logical" name="LRPA"> F  </i>
   <i type="logical" name="LNABLA"> F  </i>
   <i type="logical" name="LVEL"> F  </i>
   <i type="int" name="KINTER">     0</i>
   <i name="CSHIFT">      0.10000000</i>
   <i name="OMEGAMAX">     -1.00000000</i>
   <i name="DEG_THRESHOLD">      0.00200000</i>
   <i name="RTIME">     -0.10000000</i>
   <i name="WPLASMAI">      0.00000000</i>
   <v name="DFIELD">      0.00000000      0.00000000      0.00000000</v>
   <v name="WPLASMA">      0.00000000      0.00000000      0.00000000      0.00000000      0.00000000      0.00000000      0.00000000      0.00000000      0.00000000</v>
  </separator>
  <separator name="orbital magnetization" >
   <i type="logical" name="NUCIND"> F  </i>
   <v name="MAGPOS">      0.00000000      0.00000000      0.00000000</v>
   <i type="logical" name="LNICSALL"> T  </i>
   <i type="logical" name="ORBITALMAG"> F  </i>
   <i type="logical" name="LMAGBLOCH"> F  </i>
   <i type="logical" name="LCHIMAG"> F  </i>
   <i type="logical" name="LGAUGE"> T  </i>
   <i type="int" name="MAGATOM">     0</i>
   <v name="MAGDIPOL">      0.00000000      0.00000000      0.00000000</v>
   <v name="AVECCONST">      0.00000000      0.00000000      0.00000000</v>
  </separator>
  <separator name="response functions" >
   <i type="logical" name="LADDER"> F  </i>
   <i type="logical" name="LRPAFORCE"> F  </i>
   <i type="logical" name="LFXC"> F  </i>
   <i type="logical" name="LHARTREE"> T  </i>
   <i type="int" name="IBSE">     0</i>
   <v type="int" name="KPOINT">    -1     0     0     0</v>
   <i type="logical" name="LTCTE"> F  </i>
   <i type="logical" name="LTETE"> F  </i>
   <i type="logical" name="LTRIPLET"> F  </i>
   <i type="logical" name="LFXCEPS"> F  </i>
   <i type="logical" name="LFXHEG"> F  </i>
   <i type="int" name="NATURALO">     2</i>
   <i type="logical" name="L2ORDER"> F  </i>
   <i type="logical" name="LMP2LT"> F  </i>
   <i type="logical" name="LUSEW"> F  </i>
   <i name="ENCUTGW">     -2.00000000</i>
   <i name="ENCUTGWSOFT">     -2.00000000</i>
   <i name="ENCUTLF">     -1.00000000</i>
   <i type="int" name="LMAXMP2">    -1</i>
   <i name="SCISSOR">      0.00000000</i>
   <i type="int" name="NOMEGA">     0</i>
   <i type="int" name="NOMEGAR">     0</i>
   <i type="int" name="NBANDSGW">    -1</i>
   <i type="int" name="NBANDSO">    -1</i>
   <i type="int" name="NBANDSV">    -1</i>
   <i type="int" name="NELM">     1</i>
   <i type="int" name="NELMHF">     1</i>
   <i type="int" name="DIM">     3</i>
   <i type="int" name="ANTIRES">     0</i>
   <i name="OMEGAMAX">    -30.00000000</i>
   <i name="OMEGAMIN">    -30.00000000</i>
   <i name="OMEGATL">   -200.00000000</i>
   <i type="int" name="OMEGAGRID">   140</i>
   <i name="CSHIFT">     -0.10000000</i>
   <i type="logical" name="SELFENERGY"> F  </i>
   <i type="logical" name="LSPECTRAL"> F  </i>
   <i type="logical" name="LSPECTRALGW"> F  </i>
   <i type="logical" name="LSINGLES"> F  </i>
   <i type="logical" name="LFERMIGW"> F  </i>
   <i type="logical" name="ODDONLYGW"> F  </i>
   <i type="logical" name="EVENONLYGW"> F  </i>
   <i type="int" name="NKREDLFX">     1</i>
   <i type="int" name="NKREDLFY">     1</i>
   <i type="int" name="NKREDLFZ">     1</i>
   <i type="int" name="MAXMEM">  2800</i>
   <i type="int" name="TELESCOPE">     0</i>
   <i type="int" name="TAUPAR">     1</i>
   <i type="int" name="OMEGAPAR">    -1</i>
   <i name="LAMBDA">      1.00000000</i>
  </separator>
  <separator name="External order field" >
   <i name="OFIELD_KAPPA">      0.00000000</i>
   <v name="OFIELD_K">      0.00000000      0.00000000      0.00000000</v>
   <i name="OFIELD_Q6_NEAR">      0.00000000</i>
   <i name="OFIELD_Q6_FAR">      0.00000000</i>
   <i name="OFIELD_A">      0.00000000</i>
  </separator>
 </parameters>
 <atominfo>
  <atoms>       2 </atoms>
  <types>       1 </types>
  <array name="atoms" >
   <dimension dim="1">ion</dimension>
   <field type="string">element</field>
   <field type="int">atomtype</field>
   <set>
    <rc><c>C </c><c>   1</c></rc>
    <rc><c>C </c><c>   1</c></rc>
   </set>
  </array>
  <array name="atomtypes" >
   <dimension dim="1">type</dimension>
   <field type="int">atomspertype</field>
   <field type="string">element</field>
   <field>mass</field>
   <field>valence</field>
   <field type="string">pseudopotential</field>
   <set>
    <rc><c>   2</c><c>C </c><c>     12.01100000</c><c>      4.00000000</c><c>  PAW_PBE C 08Apr2002                   </c></rc>
   </set>
  </array>
 </atominfo>
 <structure name="initialpos" >
  <crystal>
   <varray name="basis" >
    <v>       2.18050236       0.00000000       1.25891346 </v>
    <v>       0.72683412       2.05579703       1.25891346 </v>
    <v>       0.00000000       0.00000000       2.51782692 </v>
   </varray>
   <i name="volume">     11.28658789 </i>
   <varray name="rec_basis" >
    <v>       0.45860991      -0.16214311       0.00000000 </v>
    <v>       0.00000000       0.48642934       0.00000000 </v>
    <v>      -0.22930496      -0.16214311       0.39716789 </v>
   </varray>
  </crystal>
  <varray name="positions" >
   <v>       0.87500000       0.87500000       0.87500000 </v>
   <v>       0.12500000       0.12500000       0.12500000 </v>
  </varray>
 </structure>
 <calculation>
  <scstep>
   <time name="dav">    0.18    0.18</time>
   <time name="total">    0.21    0.21</time>
   <energy>
    <i name="alphaZ">      9.64992412 </i>
    <i name="ewald">   -348.55062700 </i>
    <i name="hartreedc">    -17.50286058 </i>
    <i name="XCdc">     27.43730065 </i>
    <i name="pawpsdc">    217.04409276 </i>
    <i name="pawaedc">   -218.18290438 </i>
    <i name="eentropy">     -0.00004103 </i>
    <i name="bandstr">      4.23794037 </i>
    <i name="atom">    294.29684335 </i>
    <i name="e_fr_energy">    -31.57033173 </i>
    <i name="e_wo_entrp">    -31.57029070 </i>
    <i name="e_0_energy">    -31.57031122 </i>
   </energy>
  </scstep>
  <scstep>
   <time name="dav">    0.26    0.26</time>
   <time name="total">    0.26    0.26</time>
   <energy>
    <i name="e_fr_energy">    -45.56552019 </i>
    <i name="e_wo_entrp">    -45.56552019 </i>
    <i name="e_0_energy">    -45.56552019 </i>
   </energy>
  </scstep>
  <scstep>
   <time name="dav">    0.18    0.18</time>
   <time name="total">    0.18    0.18</time>
   <energy>
    <i name="e_fr_energy">    -45.64148992 </i>
    <i name="e_wo_entrp">    -45.64148992 </i>
    <i name="e_0_energy">    -45.64148992 </i>
   </energy>
  </scstep>
  <scstep>
   <time name="dav">    0.22    0.22</time>
   <time name="total">    0.22    0.22</time>
   <energy>
    <i name="e_fr_energy">    -45.64161483 </i>
    <i name="e_wo_entrp">    -45.64161483 </i>
    <i name="e_0_energy">    -45.64161483 </i>
   </energy>
  </scstep>
  <scstep>
   <time name="dav">    0.16    0.16</time>
   <time name="total">    0.18    0.18</time>
   <energy>
    <i name="e_fr_energy">    -45.64161488 </i>
    <i name="e_wo_entrp">    -45.64161488 </i>
    <i name="e_0_energy">    -45.64161488 </i>
   </energy>
  </scstep>
  <scstep>
   <time name="dav">    0.17    0.17</time>
   <time name="total">    0.22    0.22</time>
   <energy>
    <i name="e_fr_energy">    -44.94789007 </i>
    <i name="e_wo_entrp">    -44.94789007 </i>
    <i name="e_0_energy">    -44.94789007 </i>
   </energy>
  </scstep>
  <scstep>
   <time name="dav">    0.19    0.19</time>
   <time name="total">    0.24    0.24</time>
   <energy>
    <i name="e_fr_energy">    -44.71118582 </i>
    <i name="e_wo_entrp">    -44.71118582 </i>
    <i name="e_0_energy">    -44.71118582 </i>
   </energy>
  </scstep>
  <scstep>
   <time name="dav">    0.17    0.17</time>
   <time name="total">    0.22    0.22</time>
   <energy>
    <i name="e_fr_energy">    -44.71413728 </i>
    <i name="e_wo_entrp">    -44.71413728 </i>
    <i name="e_0_energy">    -44.71413728 </i>
   </energy>
  </scstep>
  <scstep>
   <time name="dav">    0.22    0.22</time>
   <time name="total">    0.26    0.26</time>
   <energy>
    <i name="alphaZ">      9.64992412 </i>
    <i name="ewald">   -348.55062700 </i>
    <i name="hartreedc">    -28.61402689 </i>
    <i name="XCdc">     28.45901976 </i>
    <i name="pawpsdc">    845.00091039 </i>
    <i name="pawaedc">   -846.35497694 </i>
    <i name="eentropy">     -0.00000000 </i>
    <i name="bandstr">      1.39875693 </i>
    <i name="atom">    294.29684335 </i>
    <i name="e_fr_energy">    -44.71417628 </i>
    <i name="e_wo_entrp">    -44.71417628 </i>
    <i name="e_0_energy">    -44.71417628 </i>
   </energy>
  </scstep>
  <structure>
   <crystal>
    <varray name="basis" >
     <v>       2.18050236       0.00000000       1.25891346 </v>
     <v>       0.72683412       2.05579703       1.25891346 </v>
     <v>       0.00000000       0.00000000       2.51782692 </v>
    </varray>
    <i name="volume">     11.28658789 </i>
    <varray name="rec_basis" >
     <v>       0.45860991      -0.16214311       0.00000000 </v>
     <v>       0.00000000       0.48642934       0.00000000 </v>
     <v>      -0.22930496      -0.16214311       0.39716789 </v>
    </varray>
   </crystal>
   <varray name="positions" >
    <v>       0.87500000       0.87500000       0.87500000 </v>
    <v>       0.12500000       0.12500000       0.12500000 </v>
   </varray>
  </structure>
  <varray name="forces" >
   <v>       0.00000000      -0.00000000       0.00000000 </v>
   <v>      -0.00000000       0.00000000      -0.00000000 </v>
  </varray>
  <varray name="stress" >
   <v>   -2246.02062886       0.00000000      -0.00000000 </v>
   <v>       0.00000000   -2246.01995106       0.00000000 </v>
   <v>      -0.00000000      -0.00000000   -2246.02004184 </v>
  </varray>
  <energy>
   <i name="e_fr_energy">    -44.71417628 </i>
   <i name="e_wo_entrp">    -44.71417628 </i>
   <i name="e_0_energy">     -0.00000000 </i>
  </energy>
  <time name="totalsc">    2.09    2.09</time>
  <eigenvalues>
   <array>
    <dimension dim="1">band</dimension>
    <dimension dim="2">kpoint</dimension>
    <dimension dim="3">spin</dimension>
    <field>eigene</field>
    <field>occ</field>
    <set>
     <set comment="spin 1">
      <set comment="kpoint 1">
       <r>  -12.1591    1.0000 </r>
       <r>    8.9033    1.0000 </r>
       <r>    8.9033    1.0000 </r>
       <r>    8.9033    1.0000 </r>
       <r>   15.0076    0.0000 </r>
       <r>   15.0076    0.0000 </r>
       <r>   15.0076    0.0000 </r>
       <r>   22.9002    0.0000 </r>
      </set>
      <set comment="kpoint 2">
       <r>  -12.0379    1.0000 </r>
       <r>    8.1345    1.0000 </r>
       <r>    8.7046    1.0000 </r>
       <r>    8.7046    1.0000 </r>
       <r>   15.2744    0.0000 </r>
       <r>   15.2744    0.0000 </r>
       <r>   15.4795    0.0000 </r>
       <r>   23.0106    0.0000 </r>
      </set>
      <set comment="kpoint 3">
       <r>  -11.6753    1.0000 </r>
       <r>    6.3684    1.0000 </r>
       <r>    8.2200    1.0000 </r>
       <r>    8.2201    1.0000 </r>
       <r>   15.9307    0.0000 </r>
       <r>   15.9307    0.0000 </r>
       <r>   16.3816    0.0000 </r>
       <r>   23.3400    0.0000 </r>
      </set>
      <set comment="kpoint 4">
       <r>  -11.0749    1.0000 </r>
       <r>    4.2330    1.0000 </r>
       <r>    7.6417    1.0000 </r>
       <r>    7.6417    1.0000 </r>
       <r>   16.6969    0.0000 </r>
       <r>   16.6969    0.0000 </r>
       <r>   17.1748    0.0000 </r>
       <r>   23.8619    0.0000 </r>
      </set>
      <set comment="kpoint 5">
       <r>  -10.2447    1.0000 </r>
       <r>    2.0157    1.0000 </r>
       <r>    7.0993    1.0000 </r>
       <r>    7.0993    1.0000 </r>
       <r>   17.3399    0.0000 </r>
       <r>   17.3399    0.0000 </r>
       <r>   17.7289    0.0000 </r>
       <r>   24.4943    0.0000 </r>
      </set>
      <set comment="kpoint 6">
       <r>   -9.2018    1.0000 </r>
       <r>   -0.1387    1.0000 </r>
       <r>    6.6595    1.0000 </r>
       <r>    6.6595    1.0000 </r>
       <r>   17.7449    0.0000 </r>
       <r>   17.7449    0.0000 </r>
       <r>   18.0773    0.0000 </r>
       <r>   25.1057    0.0000 </r>
      </set>
      <set comment="kpoint 7">
       <r>   -7.9944    1.0000 </r>
       <r>   -2.1156    1.0000 </r>
       <r>    6.3546    1.0000 </r>
       <r>    6.3546    1.0000 </r>
       <r>   17.9344    0.0000 </r>
       <r>   17.9344    0.0000 </r>
       <r>   18.2779    0.0000 </r>
       <r>   25.5569    0.0000 </r>
      </set>
      <set comment="kpoint 8">
       <r>   -6.8471    1.0000 </r>
       <r>   -3.6553    1.0000 </r>
       <r>    6.1993    1.0000 </r>
       <r>    6.1993    1.0000 </r>
       <r>   17.9959    0.0000 </r>
       <r>   17.9959    0.0000 </r>
       <r>   18.3696    0.0000 </r>
       <r>   25.7856    0.0000 </r>
      </set>
      <set comment="kpoint 9">
       <r>  -11.9975    1.0000 </r>
       <r>    8.3329    1.0000 </r>
       <r>    8.3329    1.0000 </r>
       <r>    8.5104    1.0000 </r>
       <r>   14.9064    0.0000 </r>
       <r>   15.7265    0.0000 </r>
       <r>   15.7265    0.0000 </r>
       <r>   23.0118    0.0000 </r>
      </set>
      <set comment="kpoint 10">
       <r>  -11.7154    1.0000 </r>
       <r>    6.9572    1.0000 </r>
       <r>    7.7552    1.0000 </r>
       <r>    8.3090    1.0000 </r>
       <r>   15.1023    0.0000 </r>
       <r>   16.5004    0.0000 </r>
       <r>   16.5582    0.0000 </r>
       <r>   23.1599    0.0000 </r>
      </set>
      <set comment="kpoint 11">
       <r>  -11.1943    1.0000 </r>
       <r>    4.9651    1.0000 </r>
       <r>    7.1499    1.0000 </r>
       <r>    7.8619    1.0000 </r>
       <r>   15.7227    0.0000 </r>
       <r>   17.3356    0.0000 </r>
       <r>   17.3966    0.0000 </r>
       <r>   23.4443    0.0000 </r>
      </set>
      <set comment="kpoint 12">
       <r>  -10.4404    1.0000 </r>
       <r>    2.7941    1.0000 </r>
       <r>    6.6244    1.0000 </r>
       <r>    7.2914    1.0000 </r>
       <r>   16.4556    0.0000 </r>
       <r>   18.0132    0.0000 </r>
       <r>   18.0159    0.0000 </r>
       <r>   23.8598    0.0000 </r>
      </set>
      <set comment="kpoint 13">
       <r>   -9.4669    1.0000 </r>
       <r>    0.6303    1.0000 </r>
       <r>    6.2330    1.0000 </r>
       <r>    6.7312    1.0000 </r>
       <r>   17.0586    0.0000 </r>
       <r>   18.4099    0.0000 </r>
       <r>   18.4146    0.0000 </r>
       <r>   24.4151    0.0000 </r>
      </set>
      <set comment="kpoint 14">
       <r>   -8.3069    1.0000 </r>
       <r>   -1.4054    1.0000 </r>
       <r>    6.0008    1.0000 </r>
       <r>    6.2546    1.0000 </r>
       <r>   17.4553    0.0000 </r>
       <r>   18.5311    0.0000 </r>
       <r>   18.6482    0.0000 </r>
       <r>   25.0386    0.0000 </r>
      </set>
      <set comment="kpoint 15">
       <r>   -7.0860    1.0000 </r>
       <r>   -3.1401    1.0000 </r>
       <r>    5.9011    1.0000 </r>
       <r>    5.9361    1.0000 </r>
       <r>   17.7067    0.0000 </r>
       <r>   18.4683    0.0000 </r>
       <r>   18.7639    0.0000 </r>
       <r>   25.5365    0.0000 </r>
      </set>
      <set comment="kpoint 16">
       <r>   -6.5427    1.0000 </r>
       <r>   -3.8130    1.0000 </r>
       <r>    5.6935    1.0000 </r>
       <r>    6.0376    1.0000 </r>
       <r>   17.8965    0.0000 </r>
       <r>   18.3105    0.0000 </r>
       <r>   18.7863    0.0000 </r>
       <r>   25.7144    0.0000 </r>
      </set>
      <set comment="kpoint 17">
       <r>   -7.4806    1.0000 </r>
       <r>   -2.6149    1.0000 </r>
       <r>    5.6457    1.0000 </r>
       <r>    6.2963    1.0000 </r>
       <r>   18.0499    0.0000 </r>
       <r>   18.0880    0.0000 </r>
       <r>   18.7196    0.0000 </r>
       <r>   25.5137    0.0000 </r>
      </set>
      <set comment="kpoint 18">
       <r>   -8.7108    1.0000 </r>
       <r>   -0.7455    1.0000 </r>
       <r>    5.7647    1.0000 </r>
       <r>    6.6959    1.0000 </r>
       <r>   17.7633    0.0000 </r>
       <r>   18.1151    0.0000 </r>
       <r>   18.5421    0.0000 </r>
       <r>   25.0121    0.0000 </r>
      </set>
      <set comment="kpoint 19">
       <r>   -9.8148    1.0000 </r>
       <r>    1.3468    1.0000 </r>
       <r>    6.0502    1.0000 </r>
       <r>    7.2086    1.0000 </r>
       <r>   17.2699    0.0000 </r>
       <r>   17.9977    0.0000 </r>
       <r>   18.1938    0.0000 </r>
       <r>   24.4024    0.0000 </r>
      </set>
      <set comment="kpoint 20">
       <r>  -10.7171    1.0000 </r>
       <r>    3.5274    1.0000 </r>
       <r>    6.4917    1.0000 </r>
       <r>    7.7852    1.0000 </r>
       <r>   16.5969    0.0000 </r>
       <r>   17.5572    0.0000 </r>
       <r>   17.6695    0.0000 </r>
       <r>   23.8601    0.0000 </r>
      </set>
      <set comment="kpoint 21">
       <r>  -11.3943    1.0000 </r>
       <r>    5.6558    1.0000 </r>
       <r>    7.0650    1.0000 </r>
       <r>    8.3345    1.0000 </r>
       <r>   15.8687    0.0000 </r>
       <r>   16.7444    0.0000 </r>
       <r>   17.0237    0.0000 </r>
       <r>   23.4445    0.0000 </r>
      </set>
      <set comment="kpoint 22">
       <r>  -11.8363    1.0000 </r>
       <r>    7.4008    1.0000 </r>
       <r>    7.7987    1.0000 </r>
       <r>    8.6993    1.0000 </r>
       <r>   15.3400    0.0000 </r>
       <r>   15.8921    0.0000 </r>
       <r>   16.1781    0.0000 </r>
       <r>   23.1577    0.0000 </r>
      </set>
      <set comment="kpoint 23">
       <r>  -11.5143    1.0000 </r>
       <r>    7.1247    1.0000 </r>
       <r>    7.1247    1.0000 </r>
       <r>    7.4279    1.0000 </r>
       <r>   14.6459    0.0000 </r>
       <r>   17.3725    0.0000 </r>
       <r>   17.3725    0.0000 </r>
       <r>   22.9188    0.0000 </r>
      </set>
      <set comment="kpoint 24">
       <r>  -11.0736    1.0000 </r>
       <r>    5.5751    1.0000 </r>
       <r>    6.4940    1.0000 </r>
       <r>    7.1615    1.0000 </r>
       <r>   14.8041    0.0000 </r>
       <r>   18.2886    0.0000 </r>
       <r>   18.3044    0.0000 </r>
       <r>   22.6590    0.0000 </r>
      </set>
      <set comment="kpoint 25">
       <r>  -10.3988    1.0000 </r>
       <r>    3.5799    1.0000 </r>
       <r>    5.9627    1.0000 </r>
       <r>    6.6912    1.0000 </r>
       <r>   15.4155    0.0000 </r>
       <r>   19.0109    0.0000 </r>
       <r>   19.0816    0.0000 </r>
       <r>   22.5247    0.0000 </r>
      </set>
      <set comment="kpoint 26">
       <r>   -9.5002    1.0000 </r>
       <r>    1.4921    1.0000 </r>
       <r>    5.5830    1.0000 </r>
       <r>    6.0833    1.0000 </r>
       <r>   16.1259    0.0000 </r>
       <r>   19.4873    0.0000 </r>
       <r>   19.5578    0.0000 </r>
       <r>   22.7439    0.0000 </r>
      </set>
      <set comment="kpoint 27">
       <r>   -8.4018    1.0000 </r>
       <r>   -0.5388    1.0000 </r>
       <r>    5.3796    1.0000 </r>
       <r>    5.4784    1.0000 </r>
       <r>   16.6793    0.0000 </r>
       <r>   19.7032    0.0000 </r>
       <r>   19.7698    0.0000 </r>
       <r>   23.4392    0.0000 </r>
      </set>
      <set comment="kpoint 28">
       <r>   -7.1803    1.0000 </r>
       <r>   -2.3670    1.0000 </r>
       <r>    4.9585    1.0000 </r>
       <r>    5.3607    1.0000 </r>
       <r>   17.0563    0.0000 </r>
       <r>   19.5926    0.0000 </r>
       <r>   19.9151    0.0000 </r>
       <r>   24.4338    0.0000 </r>
      </set>
      <set comment="kpoint 29">
       <r>   -6.2551    1.0000 </r>
       <r>   -3.5372    1.0000 </r>
       <r>    4.5711    1.0000 </r>
       <r>    5.5233    1.0000 </r>
       <r>   17.3641    0.0000 </r>
       <r>   19.3250    0.0000 </r>
       <r>   19.9625    0.0000 </r>
       <r>   25.2560    0.0000 </r>
      </set>
      <set comment="kpoint 30">
       <r>   -6.7953    1.0000 </r>
       <r>   -2.8668    1.0000 </r>
       <r>    4.3452    1.0000 </r>
       <r>    5.8542    1.0000 </r>
       <r>   17.6708    0.0000 </r>
       <r>   18.9540    0.0000 </r>
       <r>   19.9226    0.0000 </r>
       <r>   25.3579    0.0000 </r>
      </set>
      <set comment="kpoint 31">
       <r>   -8.0052    1.0000 </r>
       <r>   -1.1581    1.0000 </r>
       <r>    4.2993    1.0000 </r>
       <r>    6.3293    1.0000 </r>
       <r>   17.9561    0.0000 </r>
       <r>   18.4693    0.0000 </r>
       <r>   19.7677    0.0000 </r>
       <r>   24.7596    0.0000 </r>
      </set>
      <set comment="kpoint 32">
       <r>   -9.1572    1.0000 </r>
       <r>    0.8312    1.0000 </r>
       <r>    4.4460    1.0000 </r>
       <r>    6.9080    1.0000 </r>
       <r>   17.8330    0.0000 </r>
       <r>   18.1258    0.0000 </r>
       <r>   19.4000    0.0000 </r>
       <r>   24.0317    0.0000 </r>
      </set>
      <set comment="kpoint 33">
       <r>  -10.1251    1.0000 </r>
       <r>    2.8987    1.0000 </r>
       <r>    4.8057    1.0000 </r>
       <r>    7.5220    1.0000 </r>
       <r>   17.0659    0.0000 </r>
       <r>   18.0626    0.0000 </r>
       <r>   18.6957    0.0000 </r>
       <r>   23.6032    0.0000 </r>
      </set>
      <set comment="kpoint 34">
       <r>  -10.8754    1.0000 </r>
       <r>    4.7106    1.0000 </r>
       <r>    5.5595    1.0000 </r>
       <r>    8.0546    1.0000 </r>
       <r>   16.3219    0.0000 </r>
       <r>   17.6918    0.0000 </r>
       <r>   17.7211    0.0000 </r>
       <r>   23.4859    0.0000 </r>
      </set>
      <set comment="kpoint 35">
       <r>  -10.7142    1.0000 </r>
       <r>    5.8382    1.0000 </r>
       <r>    5.8382    1.0000 </r>
       <r>    5.8494    1.0000 </r>
       <r>   14.3267    0.0000 </r>
       <r>   19.3643    0.0000 </r>
       <r>   19.3643    0.0000 </r>
       <r>   21.7449    0.0000 </r>
      </set>
      <set comment="kpoint 36">
       <r>  -10.1199    1.0000 </r>
       <r>    4.1626    1.0000 </r>
       <r>    5.2843    1.0000 </r>
       <r>    5.6351    1.0000 </r>
       <r>   14.4999    0.0000 </r>
       <r>   20.2682    0.0000 </r>
       <r>   20.2978    0.0000 </r>
       <r>   21.0204    0.0000 </r>
      </set>
      <set comment="kpoint 37">
       <r>   -9.2996    1.0000 </r>
       <r>    2.2899    1.0000 </r>
       <r>    4.8879    1.0000 </r>
       <r>    5.0720    1.0000 </r>
       <r>   15.1296    0.0000 </r>
       <r>   20.6622    0.0000 </r>
       <r>   20.9326    0.0000 </r>
       <r>   20.9904    0.0000 </r>
      </set>
      <set comment="kpoint 38">
       <r>   -8.2717    1.0000 </r>
       <r>    0.3726    1.0000 </r>
       <r>    4.3781    1.0000 </r>
       <r>    4.6767    1.0000 </r>
       <r>   15.7987    0.0000 </r>
       <r>   21.0347    0.0000 </r>
       <r>   21.1918    0.0000 </r>
       <r>   21.4309    0.0000 </r>
      </set>
      <set comment="kpoint 39">
       <r>   -7.0871    1.0000 </r>
       <r>   -1.4462    1.0000 </r>
       <r>    3.7132    1.0000 </r>
       <r>    4.6612    1.0000 </r>
       <r>   16.2773    0.0000 </r>
       <r>   21.1165    0.0000 </r>
       <r>   21.4189    0.0000 </r>
       <r>   22.3927    0.0000 </r>
      </set>
      <set comment="kpoint 40">
       <r>   -5.9751    1.0000 </r>
       <r>   -2.8796    1.0000 </r>
       <r>    3.1649    1.0000 </r>
       <r>    4.8396    1.0000 </r>
       <r>   16.6471    0.0000 </r>
       <r>   20.7989    0.0000 </r>
       <r>   21.5242    0.0000 </r>
       <r>   23.8601    0.0000 </r>
      </set>
      <set comment="kpoint 41">
       <r>   -5.9915    1.0000 </r>
       <r>   -2.8442    1.0000 </r>
       <r>    2.7826    1.0000 </r>
       <r>    5.1986    1.0000 </r>
       <r>   17.0328    0.0000 </r>
       <r>   20.3075    0.0000 </r>
       <r>   21.5205    0.0000 </r>
       <r>   24.9145    0.0000 </r>
      </set>
      <set comment="kpoint 42">
       <r>   -7.1061    1.0000 </r>
       <r>   -1.3722    1.0000 </r>
       <r>    2.5992    1.0000 </r>
       <r>    5.7114    1.0000 </r>
       <r>   17.4608    0.0000 </r>
       <r>   19.6539    0.0000 </r>
       <r>   21.3895    0.0000 </r>
       <r>   24.5820    0.0000 </r>
      </set>
      <set comment="kpoint 43">
       <r>   -8.2851    1.0000 </r>
       <r>    0.4512    1.0000 </r>
       <r>    2.6598    1.0000 </r>
       <r>    6.3311    1.0000 </r>
       <r>   17.8661    0.0000 </r>
       <r>   18.8299    0.0000 </r>
       <r>   20.9446    0.0000 </r>
       <r>   23.7433    0.0000 </r>
      </set>
      <set comment="kpoint 44">
       <r>   -9.3082    1.0000 </r>
       <r>    2.1008    1.0000 </r>
       <r>    3.2223    1.0000 </r>
       <r>    6.9782    1.0000 </r>
       <r>   17.9022    0.0000 </r>
       <r>   18.1142    0.0000 </r>
       <r>   19.9538    0.0000 </r>
       <r>   23.4302    0.0000 </r>
      </set>
      <set comment="kpoint 45">
       <r>   -9.6069    1.0000 </r>
       <r>    3.9408    1.0000 </r>
       <r>    4.6994    1.0000 </r>
       <r>    4.6994    1.0000 </r>
       <r>   14.0592    0.0000 </r>
       <r>   19.7700    0.0000 </r>
       <r>   21.4346    0.0000 </r>
       <r>   21.4346    0.0000 </r>
      </set>
      <set comment="kpoint 46">
       <r>   -8.8669    1.0000 </r>
       <r>    2.5857    1.0000 </r>
       <r>    4.1804    1.0000 </r>
       <r>    4.2699    1.0000 </r>
       <r>   14.2923    0.0000 </r>
       <r>   19.0237    0.0000 </r>
       <r>   22.2900    0.0000 </r>
       <r>   22.2944    0.0000 </r>
      </set>
      <set comment="kpoint 47">
       <r>   -7.9149    1.0000 </r>
       <r>    1.0044    1.0000 </r>
       <r>    3.4045    1.0000 </r>
       <r>    4.0282    1.0000 </r>
       <r>   14.9462    0.0000 </r>
       <r>   18.9874    0.0000 </r>
       <r>   22.7419    0.0000 </r>
       <r>   22.8340    0.0000 </r>
      </set>
      <set comment="kpoint 48">
       <r>   -6.7870    1.0000 </r>
       <r>   -0.6143    1.0000 </r>
       <r>    2.5552    1.0000 </r>
       <r>    3.9880    1.0000 </r>
       <r>   15.5328    0.0000 </r>
       <r>   19.8716    0.0000 </r>
       <r>   22.7758    0.0000 </r>
       <r>   23.1321    0.0000 </r>
      </set>
      <set comment="kpoint 49">
       <r>   -5.6166    1.0000 </r>
       <r>   -2.0700    1.0000 </r>
       <r>    1.8108    1.0000 </r>
       <r>    4.1501    1.0000 </r>
       <r>   15.9424    0.0000 </r>
       <r>   21.4767    0.0000 </r>
       <r>   22.4606    0.0000 </r>
       <r>   23.3101    0.0000 </r>
      </set>
      <set comment="kpoint 50">
       <r>   -5.1463    1.0000 </r>
       <r>   -2.5730    1.0000 </r>
       <r>    1.2601    1.0000 </r>
       <r>    4.5031    1.0000 </r>
       <r>   16.3490    0.0000 </r>
       <r>   21.8676    0.0000 </r>
       <r>   22.9063    0.0000 </r>
       <r>   23.7994    0.0000 </r>
      </set>
      <set comment="kpoint 51">
       <r>   -6.0548    1.0000 </r>
       <r>   -1.4545    1.0000 </r>
       <r>    0.9744    1.0000 </r>
       <r>    5.0214    1.0000 </r>
       <r>   16.8367    0.0000 </r>
       <r>   21.0276    0.0000 </r>
       <r>   23.0704    0.0000 </r>
       <r>   24.3901    0.0000 </r>
      </set>
      <set comment="kpoint 52">
       <r>   -7.2256    1.0000 </r>
       <r>   -0.1093    1.0000 </r>
       <r>    1.2414    1.0000 </r>
       <r>    5.6578    1.0000 </r>
       <r>   17.3791    0.0000 </r>
       <r>   19.9740    0.0000 </r>
       <r>   22.4705    0.0000 </r>
       <r>   23.7483    0.0000 </r>
      </set>
      <set comment="kpoint 53">
       <r>   -8.2079    1.0000 </r>
       <r>    1.8288    1.0000 </r>
       <r>    3.7996    1.0000 </r>
       <r>    3.7996    1.0000 </r>
       <r>   13.9374    0.0000 </r>
       <r>   17.8388    0.0000 </r>
       <r>   23.4059    0.0000 </r>
       <r>   23.4059    0.0000 </r>
      </set>
      <set comment="kpoint 54">
       <r>   -7.3347    1.0000 </r>
       <r>    0.6527    1.0000 </r>
       <r>    3.1878    1.0000 </r>
       <r>    3.5150    1.0000 </r>
       <r>   14.2631    0.0000 </r>
       <r>   17.2982    0.0000 </r>
       <r>   24.1065    0.0000 </r>
       <r>   24.1461    0.0000 </r>
      </set>
      <set comment="kpoint 55">
       <r>   -6.2747    1.0000 </r>
       <r>   -0.5626    1.0000 </r>
       <r>    2.1878    1.0000 </r>
       <r>    3.4340    1.0000 </r>
       <r>   14.9089    0.0000 </r>
       <r>   17.6460    0.0000 </r>
       <r>   24.3111    0.0000 </r>
       <r>   24.5490    0.0000 </r>
      </set>
      <set comment="kpoint 56">
       <r>   -5.1121    1.0000 </r>
       <r>   -1.7205    1.0000 </r>
       <r>    1.1204    1.0000 </r>
       <r>    3.5604    1.0000 </r>
       <r>   15.3639    0.0000 </r>
       <r>   19.0638    0.0000 </r>
       <r>   24.0422    0.0000 </r>
       <r>   24.7201    0.0000 </r>
      </set>
      <set comment="kpoint 57">
       <r>   -4.3259    1.0000 </r>
       <r>   -2.4089    1.0000 </r>
       <r>    0.2886    1.0000 </r>
       <r>    3.8857    1.0000 </r>
       <r>   15.7531    0.0000 </r>
       <r>   21.0982    0.0000 </r>
       <r>   23.3618    0.0000 </r>
       <r>   24.7457    0.0000 </r>
      </set>
      <set comment="kpoint 58">
       <r>   -4.9562    1.0000 </r>
       <r>   -1.8133    1.0000 </r>
       <r>    0.0367    1.0000 </r>
       <r>    4.3872    1.0000 </r>
       <r>   16.2411    0.0000 </r>
       <r>   22.3253    0.0000 </r>
       <r>   23.0786    0.0000 </r>
       <r>   24.5466    0.0000 </r>
      </set>
      <set comment="kpoint 59">
       <r>   -6.5406    1.0000 </r>
       <r>   -0.3740    1.0000 </r>
       <r>    3.1821    1.0000 </r>
       <r>    3.1821    1.0000 </r>
       <r>   14.0375    0.0000 </r>
       <r>   16.2819    0.0000 </r>
       <r>   25.0663    0.0000 </r>
       <r>   25.0663    0.0000 </r>
      </set>
      <set comment="kpoint 60">
       <r>   -5.5543    1.0000 </r>
       <r>   -1.4655    1.0000 </r>
       <r>    2.6383    1.0000 </r>
       <r>    3.0518    1.0000 </r>
       <r>   14.4710    0.0000 </r>
       <r>   15.9988    0.0000 </r>
       <r>   25.4728    0.0000 </r>
       <r>   25.5570    0.0000 </r>
      </set>
      <set comment="kpoint 61">
       <r>   -4.4325    1.0000 </r>
       <r>   -2.4551    1.0000 </r>
       <r>    1.6366    1.0000 </r>
       <r>    3.1314    1.0000 </r>
       <r>   14.9771    0.0000 </r>
       <r>   16.8740    0.0000 </r>
       <r>   25.2901    0.0000 </r>
       <r>   25.6825    0.0000 </r>
      </set>
      <set comment="kpoint 62">
       <r>   -3.6562    1.0000 </r>
       <r>   -2.9662    1.0000 </r>
       <r>    0.6098    1.0000 </r>
       <r>    3.4157    1.0000 </r>
       <r>   15.3069    0.0000 </r>
       <r>   18.7910    0.0000 </r>
       <r>   24.5565    0.0000 </r>
       <r>   25.4627    0.0000 </r>
      </set>
      <set comment="kpoint 63">
       <r>   -4.6412    1.0000 </r>
       <r>   -2.5615    1.0000 </r>
       <r>    2.8687    1.0000 </r>
       <r>    2.8687    1.0000 </r>
       <r>   14.4230    0.0000 </r>
       <r>   15.1533    0.0000 </r>
       <r>   26.0680    0.0000 </r>
       <r>   26.0680    0.0000 </r>
      </set>
      <set comment="kpoint 64">
       <r>   -3.5996    1.0000 </r>
       <r>   -3.5471    1.0000 </r>
       <r>    2.4606    1.0000 </r>
       <r>    2.8958    1.0000 </r>
       <r>   14.8054    0.0000 </r>
       <r>   15.2968    0.0000 </r>
       <r>   26.0019    0.0000 </r>
       <r>   26.1096    0.0000 </r>
      </set>
      <set comment="kpoint 65">
       <r>  -11.3540    1.0000 </r>
       <r>    6.0628    1.0000 </r>
       <r>    6.6412    1.0000 </r>
       <r>    8.0533    1.0000 </r>
       <r>   15.2512    0.0000 </r>
       <r>   17.3623    0.0000 </r>
       <r>   17.3985    0.0000 </r>
       <r>   23.1624    0.0000 </r>
      </set>
      <set comment="kpoint 66">
       <r>  -10.7559    1.0000 </r>
       <r>    4.2605    1.0000 </r>
       <r>    5.8907    1.0000 </r>
       <r>    7.6256    1.0000 </r>
       <r>   15.8480    0.0000 </r>
       <r>   18.0735    0.0000 </r>
       <r>   18.2828    0.0000 </r>
       <r>   23.2019    0.0000 </r>
      </set>
      <set comment="kpoint 67">
       <r>   -9.9294    1.0000 </r>
       <r>    2.1612    1.0000 </r>
       <r>    5.4130    1.0000 </r>
       <r>    7.0519    1.0000 </r>
       <r>   16.5933    0.0000 </r>
       <r>   18.4653    0.0000 </r>
       <r>   19.0258    0.0000 </r>
       <r>   23.4308    0.0000 </r>
      </set>
      <set comment="kpoint 68">
       <r>   -8.8919    1.0000 </r>
       <r>    0.0719    1.0000 </r>
       <r>    5.1075    1.0000 </r>
       <r>    6.4743    1.0000 </r>
       <r>   17.2231    0.0000 </r>
       <r>   18.5932    0.0000 </r>
       <r>   19.4859    0.0000 </r>
       <r>   23.9991    0.0000 </r>
      </set>
      <set comment="kpoint 69">
       <r>   -7.6928    1.0000 </r>
       <r>   -1.8647    1.0000 </r>
       <r>    4.9616    1.0000 </r>
       <r>    5.9927    1.0000 </r>
       <r>   17.6408    0.0000 </r>
       <r>   18.5373    0.0000 </r>
       <r>   19.7185    0.0000 </r>
       <r>   24.7874    0.0000 </r>
      </set>
      <set comment="kpoint 70">
       <r>   -6.5569    1.0000 </r>
       <r>   -3.3788    1.0000 </r>
       <r>    4.9328    1.0000 </r>
       <r>    5.6976    1.0000 </r>
       <r>   17.8683    0.0000 </r>
       <r>   18.4258    0.0000 </r>
       <r>   19.8137    0.0000 </r>
       <r>   25.3946    0.0000 </r>
      </set>
      <set comment="kpoint 71">
       <r>  -10.5562    1.0000 </r>
       <r>    4.6522    1.0000 </r>
       <r>    5.3902    1.0000 </r>
       <r>    6.7667    1.0000 </r>
       <r>   14.9602    0.0000 </r>
       <r>   19.0670    0.0000 </r>
       <r>   19.3508    0.0000 </r>
       <r>   22.1111    0.0000 </r>
      </set>
      <set comment="kpoint 72">
       <r>   -9.8084    1.0000 </r>
       <r>    2.9279    1.0000 </r>
       <r>    4.7033    1.0000 </r>
       <r>    6.2854    1.0000 </r>
       <r>   15.5941    0.0000 </r>
       <r>   19.5418    0.0000 </r>
       <r>   20.2769    0.0000 </r>
       <r>   21.8143    0.0000 </r>
      </set>
      <set comment="kpoint 73">
       <r>   -8.8443    1.0000 </r>
       <r>    0.9562    1.0000 </r>
       <r>    4.3173    1.0000 </r>
       <r>    5.7035    1.0000 </r>
       <r>   16.3344    0.0000 </r>
       <r>   19.7131    0.0000 </r>
       <r>   20.8703    0.0000 </r>
       <r>   22.1122    0.0000 </r>
      </set>
      <set comment="kpoint 74">
       <r>   -7.6982    1.0000 </r>
       <r>   -0.9659    1.0000 </r>
       <r>    4.0621    1.0000 </r>
       <r>    5.2092    1.0000 </r>
       <r>   16.8977    0.0000 </r>
       <r>   19.6515    0.0000 </r>
       <r>   21.1851    0.0000 </r>
       <r>   23.0248    0.0000 </r>
      </set>
      <set comment="kpoint 75">
       <r>   -6.4981    1.0000 </r>
       <r>   -2.6283    1.0000 </r>
       <r>    3.8320    1.0000 </r>
       <r>    4.9835    1.0000 </r>
       <r>   17.2804    0.0000 </r>
       <r>   19.4489    0.0000 </r>
       <r>   21.3279    0.0000 </r>
       <r>   24.2165    0.0000 </r>
      </set>
      <set comment="kpoint 76">
       <r>   -5.9724    1.0000 </r>
       <r>   -3.2669    1.0000 </r>
       <r>    3.5978    1.0000 </r>
       <r>    5.0950    1.0000 </r>
       <r>   17.6070    0.0000 </r>
       <r>   19.1514    0.0000 </r>
       <r>   21.3267    0.0000 </r>
       <r>   25.0036    0.0000 </r>
      </set>
      <set comment="kpoint 77">
       <r>   -6.8914    1.0000 </r>
       <r>   -2.1032    1.0000 </r>
       <r>    3.4501    1.0000 </r>
       <r>    5.4634    1.0000 </r>
       <r>   17.9314    0.0000 </r>
       <r>   18.7615    0.0000 </r>
       <r>   21.2033    0.0000 </r>
       <r>   24.6264    0.0000 </r>
      </set>
      <set comment="kpoint 78">
       <r>   -8.1017    1.0000 </r>
       <r>   -0.3091    1.0000 </r>
       <r>    3.4638    1.0000 </r>
       <r>    5.9998    1.0000 </r>
       <r>   17.9973    0.0000 </r>
       <r>   18.4435    0.0000 </r>
       <r>   20.9259    0.0000 </r>
       <r>   23.6678    0.0000 </r>
      </set>
      <set comment="kpoint 79">
       <r>   -9.1917    1.0000 </r>
       <r>    1.6378    1.0000 </r>
       <r>    3.6944    1.0000 </r>
       <r>    6.6210    1.0000 </r>
       <r>   17.3044    0.0000 </r>
       <r>   18.5566    0.0000 </r>
       <r>   20.3489    0.0000 </r>
       <r>   22.9941    0.0000 </r>
      </set>
      <set comment="kpoint 80">
       <r>  -10.0847    1.0000 </r>
       <r>    3.3626    1.0000 </r>
       <r>    4.3666    1.0000 </r>
       <r>    7.2145    1.0000 </r>
       <r>   16.4669    0.0000 </r>
       <r>   18.4808    0.0000 </r>
       <r>   19.3866    0.0000 </r>
       <r>   22.9279    0.0000 </r>
      </set>
      <set comment="kpoint 81">
       <r>   -9.4528    1.0000 </r>
       <r>    3.2015    1.0000 </r>
       <r>    4.2787    1.0000 </r>
       <r>    5.2379    1.0000 </r>
       <r>   14.7052    0.0000 </r>
       <r>   20.2218    0.0000 </r>
       <r>   20.9176    0.0000 </r>
       <r>   21.4415    0.0000 </r>
      </set>
      <set comment="kpoint 82">
       <r>   -8.5662    1.0000 </r>
       <r>    1.6583    1.0000 </r>
       <r>    3.6169    1.0000 </r>
       <r>    4.7356    1.0000 </r>
       <r>   15.3906    0.0000 </r>
       <r>   19.9833    0.0000 </r>
       <r>   21.2107    0.0000 </r>
       <r>   22.3341    0.0000 </r>
      </set>
      <set comment="kpoint 83">
       <r>   -7.4860    1.0000 </r>
       <r>   -0.0829    1.0000 </r>
       <r>    3.1286    1.0000 </r>
       <r>    4.3005    1.0000 </r>
       <r>   16.0926    0.0000 </r>
       <r>   20.4956    0.0000 </r>
       <r>   21.2554    0.0000 </r>
       <r>   22.8872    0.0000 </r>
      </set>
      <set comment="kpoint 84">
       <r>   -6.2913    1.0000 </r>
       <r>   -1.7345    1.0000 </r>
       <r>    2.6205    1.0000 </r>
       <r>    4.1753    1.0000 </r>
       <r>   16.5707    0.0000 </r>
       <r>   20.9736    0.0000 </r>
       <r>   21.8267    0.0000 </r>
       <r>   23.1926    0.0000 </r>
      </set>
      <set comment="kpoint 85">
       <r>   -5.4044    1.0000 </r>
       <r>   -2.7975    1.0000 </r>
       <r>    2.1577    1.0000 </r>
       <r>    4.3557    1.0000 </r>
       <r>   16.9563    0.0000 </r>
       <r>   20.6583    0.0000 </r>
       <r>   22.7144    0.0000 </r>
       <r>   23.8537    0.0000 </r>
      </set>
      <set comment="kpoint 86">
       <r>   -5.9433    1.0000 </r>
       <r>   -2.1294    1.0000 </r>
       <r>    1.8444    1.0000 </r>
       <r>    4.7645    1.0000 </r>
       <r>   17.3810    0.0000 </r>
       <r>   20.1336    0.0000 </r>
       <r>   22.6949    0.0000 </r>
       <r>   24.4310    0.0000 </r>
      </set>
      <set comment="kpoint 87">
       <r>   -7.1187    1.0000 </r>
       <r>   -0.5556    1.0000 </r>
       <r>    1.7655    1.0000 </r>
       <r>    5.3366    1.0000 </r>
       <r>   17.8581    0.0000 </r>
       <r>   19.3541    0.0000 </r>
       <r>   22.4494    0.0000 </r>
       <r>   23.5755    0.0000 </r>
      </set>
      <set comment="kpoint 88">
       <r>   -8.2429    1.0000 </r>
       <r>    0.9414    1.0000 </r>
       <r>    2.2052    1.0000 </r>
       <r>    5.9947    1.0000 </r>
       <r>   18.3030    0.0000 </r>
       <r>   18.3369    0.0000 </r>
       <r>   21.6948    0.0000 </r>
       <r>   22.8822    0.0000 </r>
      </set>
      <set comment="kpoint 89">
       <r>   -8.0605    1.0000 </r>
       <r>    1.5405    1.0000 </r>
       <r>    3.4042    1.0000 </r>
       <r>    3.9045    1.0000 </r>
       <r>   14.5865    0.0000 </r>
       <r>   18.3562    0.0000 </r>
       <r>   22.7657    0.0000 </r>
       <r>   23.4269    0.0000 </r>
      </set>
      <set comment="kpoint 90">
       <r>   -7.0536    1.0000 </r>
       <r>    0.2644    1.0000 </r>
       <r>    2.6087    1.0000 </r>
       <r>    3.5293    1.0000 </r>
       <r>   15.3244    0.0000 </r>
       <r>   18.4118    0.0000 </r>
       <r>   22.9049    0.0000 </r>
       <r>   24.1507    0.0000 </r>
      </set>
      <set comment="kpoint 91">
       <r>   -5.8997    1.0000 </r>
       <r>   -1.0915    1.0000 </r>
       <r>    1.7245    1.0000 </r>
       <r>    3.4582    1.0000 </r>
       <r>   15.9283    0.0000 </r>
       <r>   19.4648    0.0000 </r>
       <r>   22.7834    0.0000 </r>
       <r>   24.4233    0.0000 </r>
      </set>
      <set comment="kpoint 92">
       <r>   -4.8375    1.0000 </r>
       <r>   -2.2295    1.0000 </r>
       <r>    0.9659    1.0000 </r>
       <r>    3.6573    1.0000 </r>
       <r>   16.3358    0.0000 </r>
       <r>   21.2531    0.0000 </r>
       <r>   22.4331    0.0000 </r>
       <r>   24.3285    0.0000 </r>
      </set>
      <set comment="kpoint 93">
       <r>   -4.9228    1.0000 </r>
       <r>   -2.0763    1.0000 </r>
       <r>    0.4813    1.0000 </r>
       <r>    4.0727    1.0000 </r>
       <r>   16.7700    0.0000 </r>
       <r>   21.7369    0.0000 </r>
       <r>   23.1180    0.0000 </r>
       <r>   24.0349    0.0000 </r>
      </set>
      <set comment="kpoint 94">
       <r>   -5.9951    1.0000 </r>
       <r>   -1.0170    1.0000 </r>
       <r>    0.5591    1.0000 </r>
       <r>    4.6557    1.0000 </r>
       <r>   17.2957    0.0000 </r>
       <r>   20.6762    0.0000 </r>
       <r>   23.5733    0.0000 </r>
       <r>   23.7467    0.0000 </r>
      </set>
      <set comment="kpoint 95">
       <r>   -6.4054    1.0000 </r>
       <r>   -0.4164    1.0000 </r>
       <r>    2.8151    1.0000 </r>
       <r>    3.0362    1.0000 </r>
       <r>   14.6807    0.0000 </r>
       <r>   16.8483    0.0000 </r>
       <r>   24.4343    0.0000 </r>
       <r>   25.0444    0.0000 </r>
      </set>
      <set comment="kpoint 96">
       <r>   -5.3110    1.0000 </r>
       <r>   -1.4684    1.0000 </r>
       <r>    1.8820    1.0000 </r>
       <r>    2.9142    1.0000 </r>
       <r>   15.4230    0.0000 </r>
       <r>   17.2883    0.0000 </r>
       <r>   24.4214    0.0000 </r>
       <r>   25.3585    0.0000 </r>
      </set>
      <set comment="kpoint 97">
       <r>   -4.1963    1.0000 </r>
       <r>   -2.3870    1.0000 </r>
       <r>    0.7984    1.0000 </r>
       <r>    3.0979    1.0000 </r>
       <r>   15.8524    0.0000 </r>
       <r>   18.9079    0.0000 </r>
       <r>   24.0731    0.0000 </r>
       <r>   25.1146    0.0000 </r>
      </set>
      <set comment="kpoint 98">
       <r>   -4.0134    1.0000 </r>
       <r>   -2.4443    1.0000 </r>
       <r>    0.0949    1.0000 </r>
       <r>    3.4967    1.0000 </r>
       <r>   16.2508    0.0000 </r>
       <r>   21.0791    0.0000 </r>
       <r>   23.1881    0.0000 </r>
       <r>   24.6134    0.0000 </r>
      </set>
      <set comment="kpoint 99">
       <r>   -4.5290    1.0000 </r>
       <r>   -2.4971    1.0000 </r>
       <r>    2.5403    1.0000 </r>
       <r>    2.6031    1.0000 </r>
       <r>   15.0515    0.0000 </r>
       <r>   15.7566    0.0000 </r>
       <r>   25.6197    0.0000 </r>
       <r>   25.8839    0.0000 </r>
      </set>
      <set comment="kpoint 100">
       <r>   -3.4991    1.0000 </r>
       <r>   -3.3097    1.0000 </r>
       <r>    1.6413    1.0000 </r>
       <r>    2.7280    1.0000 </r>
       <r>   15.5427    0.0000 </r>
       <r>   16.8230    0.0000 </r>
       <r>   25.2660    0.0000 </r>
       <r>   25.5818    0.0000 </r>
      </set>
      <set comment="kpoint 101">
       <r>   -8.9940    1.0000 </r>
       <r>    2.0814    1.0000 </r>
       <r>    3.3032    1.0000 </r>
       <r>    5.7859    1.0000 </r>
       <r>   16.3243    0.0000 </r>
       <r>   19.6753    0.0000 </r>
       <r>   21.4228    0.0000 </r>
       <r>   21.4898    0.0000 </r>
      </set>
      <set comment="kpoint 102">
       <r>   -7.9749    1.0000 </r>
       <r>    0.5258    1.0000 </r>
       <r>    2.7080    1.0000 </r>
       <r>    5.1638    1.0000 </r>
       <r>   17.2208    0.0000 </r>
       <r>   19.5013    0.0000 </r>
       <r>   21.5930    0.0000 </r>
       <r>   22.5098    0.0000 </r>
      </set>
      <set comment="kpoint 103">
       <r>   -6.8024    1.0000 </r>
       <r>   -1.2111    1.0000 </r>
       <r>    2.5364    1.0000 </r>
       <r>    4.6032    1.0000 </r>
       <r>   17.8640    0.0000 </r>
       <r>   19.2686    0.0000 </r>
       <r>   22.2035    0.0000 </r>
       <r>   23.3587    0.0000 </r>
      </set>
      <set comment="kpoint 104">
       <r>   -5.6998    1.0000 </r>
       <r>   -2.6257    1.0000 </r>
       <r>    2.5083    1.0000 </r>
       <r>    4.2615    1.0000 </r>
       <r>   18.1362    0.0000 </r>
       <r>   19.1320    0.0000 </r>
       <r>   22.6874    0.0000 </r>
       <r>   24.1759    0.0000 </r>
      </set>
      <set comment="kpoint 105">
       <r>   -7.6241    1.0000 </r>
       <r>    0.8136    1.0000 </r>
       <r>    2.4788    1.0000 </r>
       <r>    4.1697    1.0000 </r>
       <r>   16.2522    0.0000 </r>
       <r>   19.6798    0.0000 </r>
       <r>   21.2465    0.0000 </r>
       <r>   23.4912    0.0000 </r>
      </set>
      <set comment="kpoint 106">
       <r>   -6.5100    1.0000 </r>
       <r>   -0.4899    1.0000 </r>
       <r>    1.8783    1.0000 </r>
       <r>    3.6014    1.0000 </r>
       <r>   17.1723    0.0000 </r>
       <r>   20.0273    0.0000 </r>
       <r>   21.1976    0.0000 </r>
       <r>   24.1742    0.0000 </r>
      </set>
      <set comment="kpoint 107">
       <r>   -5.3525    1.0000 </r>
       <r>   -1.8658    1.0000 </r>
       <r>    1.5249    1.0000 </r>
       <r>    3.3184    1.0000 </r>
       <r>   17.7195    0.0000 </r>
       <r>   20.4579    0.0000 </r>
       <r>   21.8245    0.0000 </r>
       <r>   24.2195    0.0000 </r>
      </set>
      <set comment="kpoint 108">
       <r>   -4.8641    1.0000 </r>
       <r>   -2.3990    1.0000 </r>
       <r>    1.2340    1.0000 </r>
       <r>    3.4313    1.0000 </r>
       <r>   18.1016    0.0000 </r>
       <r>   20.1834    0.0000 </r>
       <r>   23.2083    0.0000 </r>
       <r>   23.6210    0.0000 </r>
      </set>
      <set comment="kpoint 109">
       <r>   -5.7555    1.0000 </r>
       <r>   -1.3602    1.0000 </r>
       <r>    1.0989    1.0000 </r>
       <r>    3.8611    1.0000 </r>
       <r>   18.5239    0.0000 </r>
       <r>   19.5470    0.0000 </r>
       <r>   22.4971    0.0000 </r>
       <r>   24.0784    0.0000 </r>
      </set>
      <set comment="kpoint 110">
       <r>   -6.9197    1.0000 </r>
       <r>   -0.1035    1.0000 </r>
       <r>    1.4388    1.0000 </r>
       <r>    4.4852    1.0000 </r>
       <r>   18.4418    0.0000 </r>
       <r>   19.0418    0.0000 </r>
       <r>   21.8157    0.0000 </r>
       <r>   23.6124    0.0000 </r>
      </set>
      <set comment="kpoint 111">
       <r>   -6.0105    1.0000 </r>
       <r>   -0.6275    1.0000 </r>
       <r>    1.9543    1.0000 </r>
       <r>    2.8170    1.0000 </r>
       <r>   16.3562    0.0000 </r>
       <r>   18.3458    0.0000 </r>
       <r>   22.7987    0.0000 </r>
       <r>   24.9311    0.0000 </r>
      </set>
      <set comment="kpoint 112">
       <r>   -4.8658    1.0000 </r>
       <r>   -1.6300    1.0000 </r>
       <r>    1.1920    1.0000 </r>
       <r>    2.5149    1.0000 </r>
       <r>   17.2122    0.0000 </r>
       <r>   19.2951    0.0000 </r>
       <r>   22.5466    0.0000 </r>
       <r>   24.8098    0.0000 </r>
      </set>
      <set comment="kpoint 113">
       <r>   -4.0574    1.0000 </r>
       <r>   -2.3228    1.0000 </r>
       <r>    0.4890    1.0000 </r>
       <r>    2.7030    1.0000 </r>
       <r>   17.6347    0.0000 </r>
       <r>   21.1260    0.0000 </r>
       <r>   22.1750    0.0000 </r>
       <r>   23.8607    0.0000 </r>
      </set>
      <set comment="kpoint 114">
       <r>   -4.6632    1.0000 </r>
       <r>   -1.7877    1.0000 </r>
       <r>    0.2930    1.0000 </r>
       <r>    3.1869    1.0000 </r>
       <r>   18.0632    0.0000 </r>
       <r>   21.0229    0.0000 </r>
       <r>   22.9144    0.0000 </r>
       <r>   23.2544    0.0000 </r>
      </set>
      <set comment="kpoint 115">
       <r>   -4.2159    1.0000 </r>
       <r>   -2.3564    1.0000 </r>
       <r>    1.7809    1.0000 </r>
       <r>    2.0304    1.0000 </r>
       <r>   16.7054    0.0000 </r>
       <r>   17.3540    0.0000 </r>
       <r>   24.2659    0.0000 </r>
       <r>   25.1909    0.0000 </r>
      </set>
      <set comment="kpoint 116">
       <r>   -3.3719    1.0000 </r>
       <r>   -2.9261    1.0000 </r>
       <r>    0.8882    1.0000 </r>
       <r>    2.1813    1.0000 </r>
       <r>   17.2596    0.0000 </r>
       <r>   18.9711    0.0000 </r>
       <r>   23.7481    0.0000 </r>
       <r>   24.2418    0.0000 </r>
      </set>
      <set comment="kpoint 117">
       <r>   -5.3967    1.0000 </r>
       <r>   -1.1178    1.0000 </r>
       <r>    1.0078    1.0000 </r>
       <r>    2.8654    1.0000 </r>
       <r>   18.6102    0.0000 </r>
       <r>   19.8071    0.0000 </r>
       <r>   21.2294    0.0000 </r>
       <r>   24.5099    0.0000 </r>
      </set>
      <set comment="kpoint 118">
       <r>   -4.3455    1.0000 </r>
       <r>   -2.0203    1.0000 </r>
       <r>    0.7184    1.0000 </r>
       <r>    2.3900    1.0000 </r>
       <r>   19.2819    0.0000 </r>
       <r>   20.1022    0.0000 </r>
       <r>   21.9312    0.0000 </r>
       <r>   23.4766    0.0000 </r>
      </set>
      <set comment="kpoint 119">
       <r>   -3.7898    1.0000 </r>
       <r>   -2.3065    1.0000 </r>
       <r>    1.0133    1.0000 </r>
       <r>    1.6098    1.0000 </r>
       <r>   18.9434    0.0000 </r>
       <r>   19.4564    0.0000 </r>
       <r>   22.2678    0.0000 </r>
       <r>   23.7172    0.0000 </r>
      </set>
      <set comment="kpoint 120">
       <r>   -3.4420    1.0000 </r>
       <r>   -2.5221    1.0000 </r>
       <r>    0.6303    1.0000 </r>
       <r>    1.6843    1.0000 </r>
       <r>   19.4394    0.0000 </r>
       <r>   20.9364    0.0000 </r>
       <r>   21.9774    0.0000 </r>
       <r>   22.2554    0.0000 </r>
      </set>
     </set>
    </set>
   </array>
  </eigenvalues>
  <separator name="orbital magnetization" >
   <v name="MAGDIPOLOUT">      0.00000000      0.00000000      0.00000000</v>
  </separator>
  <dos>
   <i name="efermi">      9.22471095 </i>
   <total>
    <array>
     <dimension dim="1">gridpoints</dimension>
     <dimension dim="2">spin</dimension>
     <field>energy</field>
     <field>total</field>
     <field>integrated</field>
     <set>
      <set comment="spin 1">
       <r>   -14.0726     0.0000     0.0000 </r>
       <r>   -13.9323     0.0000     0.0000 </r>
       <r>   -13.7919     0.0000     0.0000 </r>
       <r>   -13.6516     0.0000     0.0000 </r>
       <r>   -13.5113     0.0000     0.0000 </r>
       <r>   -13.3710     0.0000     0.0000 </r>
       <r>   -13.2307     0.0000     0.0000 </r>
       <r>   -13.0904     0.0000     0.0000 </r>
       <r>   -12.9500     0.0000     0.0000 </r>
       <r>   -12.8097     0.0000     0.0000 </r>
       <r>   -12.6694     0.0000     0.0000 </r>
       <r>   -12.5291     0.0000     0.0000 </r>
       <r>   -12.3888     0.0000     0.0000 </r>
       <r>   -12.2484     0.0000     0.0000 </r>
       <r>   -12.1081     0.0047     0.0007 </r>
       <r>   -11.9678     0.0528     0.0081 </r>
       <r>   -11.8275     0.0362     0.0132 </r>
       <r>   -11.6872     0.1126     0.0290 </r>
       <r>   -11.5468     0.0473     0.0356 </r>
       <r>   -11.4065     0.0647     0.0447 </r>
       <r>   -11.2662     0.1602     0.0672 </r>
       <r>   -11.1259     0.1068     0.0822 </r>
       <r>   -10.9856     0.1274     0.1000 </r>
       <r>   -10.8453     0.0427     0.1060 </r>
       <r>   -10.7049     0.2760     0.1447 </r>
       <r>   -10.5646     0.1034     0.1593 </r>
       <r>   -10.4243     0.1525     0.1806 </r>
       <r>   -10.2840     0.1149     0.1968 </r>
       <r>   -10.1437     0.0899     0.2094 </r>
       <r>   -10.0033     0.2460     0.2439 </r>
       <r>    -9.8630     0.2152     0.2741 </r>
       <r>    -9.7227     0.2871     0.3144 </r>
       <r>    -9.5824     0.0223     0.3175 </r>
       <r>    -9.4421     0.2411     0.3513 </r>
       <r>    -9.3017     0.1456     0.3718 </r>
       <r>    -9.1614     0.3129     0.4157 </r>
       <r>    -9.0211     0.1221     0.4328 </r>
       <r>    -8.8808     0.2710     0.4708 </r>
       <r>    -8.7405     0.3346     0.5178 </r>
       <r>    -8.6002     0.1154     0.5340 </r>
       <r>    -8.4598     0.1735     0.5583 </r>
       <r>    -8.3195     0.1592     0.5806 </r>
       <r>    -8.1792     0.3615     0.6314 </r>
       <r>    -8.0389     0.3035     0.6740 </r>
       <r>    -7.8986     0.4104     0.7315 </r>
       <r>    -7.7582     0.0515     0.7388 </r>
       <r>    -7.6179     0.4418     0.8008 </r>
       <r>    -7.4776     0.2239     0.8322 </r>
       <r>    -7.3373     0.1774     0.8571 </r>
       <r>    -7.1970     0.1295     0.8752 </r>
       <r>    -7.0566     0.6207     0.9623 </r>
       <r>    -6.9163     0.2693     1.0001 </r>
       <r>    -6.7760     0.5239     1.0736 </r>
       <r>    -6.6357     0.1182     1.0902 </r>
       <r>    -6.4954     0.5483     1.1672 </r>
       <r>    -6.3551     0.2855     1.2072 </r>
       <r>    -6.2147     0.3842     1.2611 </r>
       <r>    -6.0744     0.0562     1.2690 </r>
       <r>    -5.9341     0.7776     1.3781 </r>
       <r>    -5.7938     0.3303     1.4245 </r>
       <r>    -5.6535     0.3722     1.4767 </r>
       <r>    -5.5131     0.1948     1.5041 </r>
       <r>    -5.3728     0.3189     1.5488 </r>
       <r>    -5.2325     0.4010     1.6051 </r>
       <r>    -5.0922     0.1693     1.6288 </r>
       <r>    -4.9519     0.1078     1.6439 </r>
       <r>    -4.8115     0.7156     1.7443 </r>
       <r>    -4.6712     0.1201     1.7612 </r>
       <r>    -4.5309     0.1289     1.7793 </r>
       <r>    -4.3906     0.1659     1.8026 </r>
       <r>    -4.2503     0.3194     1.8474 </r>
       <r>    -4.1100     0.2894     1.8880 </r>
       <r>    -3.9696     0.2792     1.9272 </r>
       <r>    -3.8293     0.0583     1.9354 </r>
       <r>    -3.6890     0.1714     1.9594 </r>
       <r>    -3.5487     0.1869     1.9856 </r>
       <r>    -3.4084     0.3268     2.0315 </r>
       <r>    -3.2680     0.4531     2.0951 </r>
       <r>    -3.1277     0.1810     2.1205 </r>
       <r>    -2.9874     0.0550     2.1282 </r>
       <r>    -2.8471     0.3514     2.1775 </r>
       <r>    -2.7068     0.2935     2.2187 </r>
       <r>    -2.5664     0.5588     2.2971 </r>
       <r>    -2.4261     0.5330     2.3719 </r>
       <r>    -2.2858     0.9054     2.4989 </r>
       <r>    -2.1455     0.3546     2.5487 </r>
       <r>    -2.0052     0.7687     2.6566 </r>
       <r>    -1.8649     0.2860     2.6967 </r>
       <r>    -1.7245     0.5145     2.7689 </r>
       <r>    -1.5842     0.3205     2.8138 </r>
       <r>    -1.4439     0.3807     2.8673 </r>
       <r>    -1.3036     0.5381     2.9428 </r>
       <r>    -1.1633     0.2570     2.9788 </r>
       <r>    -1.0229     0.4132     3.0368 </r>
       <r>    -0.8826     0.2531     3.0723 </r>
       <r>    -0.7423     0.0563     3.0802 </r>
       <r>    -0.6020     0.2254     3.1119 </r>
       <r>    -0.4617     0.5971     3.1957 </r>
       <r>    -0.3213     0.2337     3.2284 </r>
       <r>    -0.1810     0.1379     3.2478 </r>
       <r>    -0.0407     0.3536     3.2974 </r>
       <r>     0.0996     0.2915     3.3383 </r>
       <r>     0.2399     0.1561     3.3602 </r>
       <r>     0.3802     0.4015     3.4166 </r>
       <r>     0.5206     0.5839     3.4985 </r>
       <r>     0.6609     0.5480     3.5754 </r>
       <r>     0.8012     0.4401     3.6371 </r>
       <r>     0.9415     0.5327     3.7119 </r>
       <r>     1.0818     0.7946     3.8234 </r>
       <r>     1.2222     0.4990     3.8934 </r>
       <r>     1.3625     0.3602     3.9440 </r>
       <r>     1.5028     0.2612     3.9806 </r>
       <r>     1.6431     0.6676     4.0743 </r>
       <r>     1.7834     0.8425     4.1925 </r>
       <r>     1.9238     0.7930     4.3038 </r>
       <r>     2.0641     0.2838     4.3436 </r>
       <r>     2.2044     0.6904     4.4405 </r>
       <r>     2.3447     0.2663     4.4778 </r>
       <r>     2.4850     0.3997     4.5339 </r>
       <r>     2.6253     1.2961     4.7158 </r>
       <r>     2.7657     0.9111     4.8436 </r>
       <r>     2.9060     0.7266     4.9456 </r>
       <r>     3.0463     0.4757     5.0124 </r>
       <r>     3.1866     0.8119     5.1263 </r>
       <r>     3.3269     0.4965     5.1959 </r>
       <r>     3.4673     1.0993     5.3502 </r>
       <r>     3.6076     1.2665     5.5279 </r>
       <r>     3.7479     0.7883     5.6385 </r>
       <r>     3.8882     0.5130     5.7105 </r>
       <r>     4.0285     0.3922     5.7655 </r>
       <r>     4.1689     0.7178     5.8663 </r>
       <r>     4.3092     1.1850     6.0325 </r>
       <r>     4.4495     0.8948     6.1581 </r>
       <r>     4.5898     0.3849     6.2121 </r>
       <r>     4.7301     0.9035     6.3389 </r>
       <r>     4.8704     0.5849     6.4210 </r>
       <r>     5.0108     0.8580     6.5414 </r>
       <r>     5.1511     0.7019     6.6398 </r>
       <r>     5.2914     0.6236     6.7273 </r>
       <r>     5.4317     0.7020     6.8259 </r>
[...]
       </set>
       <set comment="band 5">
        <r>  0.0413  0.0103  0.2156  0.0182  0.0000  0.0000  0.0000  0.0000  0.0000 </r>
        <r>  0.0413  0.0103  0.2156  0.0182  0.0000  0.0000  0.0000  0.0000  0.0000 </r>
       </set>
       <set comment="band 6">
        <r>  0.0412  0.0717  0.0510  0.0844  0.0000  0.0000  0.0000  0.0000  0.0000 </r>
        <r>  0.0412  0.0717  0.0510  0.0844  0.0000  0.0000  0.0000  0.0000  0.0000 </r>
       </set>
       <set comment="band 7">
        <r>  0.1433  0.0836  0.0020  0.0623  0.0000  0.0000  0.0000  0.0000  0.0000 </r>
        <r>  0.1433  0.0836  0.0020  0.0623  0.0000  0.0000  0.0000  0.0000  0.0000 </r>
       </set>
       <set comment="band 8">
        <r>  0.0306  0.1132  0.0766  0.1581  0.0000  0.0000  0.0000  0.0000  0.0000 </r>
        <r>  0.0306  0.1132  0.0766  0.1581  0.0000  0.0000  0.0000  0.0000  0.0000 </r>
       </set>
      </set>
      <set comment="kpoint 111">
       <set comment="band 1">
        <r>  0.2406  0.0136  0.0036  0.0603  0.0000  0.0000  0.0000  0.0000  0.0000 </r>
        <r>  0.2406  0.0136  0.0036  0.0603  0.0000  0.0000  0.0000  0.0000  0.0000 </r>
       </set>
       <set comment="band 2">
        <r>  0.1949  0.0343  0.0221  0.0995  0.0000  0.0000  0.0000  0.0000  0.0000 </r>
        <r>  0.1949  0.0343  0.0221  0.0995  0.0000  0.0000  0.0000  0.0000  0.0000 </r>
       </set>
       <set comment="band 3">
        <r>  0.0170  0.0695  0.1397  0.0865  0.0000  0.0000  0.0000  0.0000  0.0000 </r>
        <r>  0.0170  0.0695  0.1397  0.0865  0.0000  0.0000  0.0000  0.0000  0.0000 </r>
       </set>
       <set comment="band 4">
        <r>  0.0012  0.1679  0.1297  0.0171  0.0000  0.0000  0.0000  0.0000  0.0000 </r>
        <r>  0.0012  0.1679  0.1297  0.0171  0.0000  0.0000  0.0000  0.0000  0.0000 </r>
       </set>
       <set comment="band 5">
        <r>  0.0792  0.0971  0.0326  0.0290  0.0000  0.0000  0.0000  0.0000  0.0000 </r>
        <r>  0.0792  0.0971  0.0326  0.0290  0.0000  0.0000  0.0000  0.0000  0.0000 </r>
       </set>
       <set comment="band 6">
        <r>  0.0862  0.0018  0.0299  0.0748  0.0000  0.0000  0.0000  0.0000  0.0000 </r>
        <r>  0.0862  0.0018  0.0299  0.0748  0.0000  0.0000  0.0000  0.0000  0.0000 </r>
       </set>
       <set comment="band 7">
        <r>  0.0557  0.1291  0.1372  0.0258  0.0000  0.0000  0.0000  0.0000  0.0000 </r>
        <r>  0.0557  0.1291  0.1372  0.0258  0.0000  0.0000  0.0000  0.0000  0.0000 </r>
       </set>
       <set comment="band 8">
        <r>  0.0137  0.1227  0.1939  0.0717  0.0000  0.0000  0.0000  0.0000  0.0000 </r>
        <r>  0.0137  0.1227  0.1939  0.0717  0.0000  0.0000  0.0000  0.0000  0.0000 </r>
       </set>
      </set>
      <set comment="kpoint 112">
       <set comment="band 1">
        <r>  0.2406  0.0169  0.0042  0.0662  0.0000  0.0000  0.0000  0.0000  0.0000 </r>
        <r>  0.2406  0.0169  0.0042  0.0662  0.0000  0.0000  0.0000  0.0000  0.0000 </r>
       </set>
       <set comment="band 2">
        <r>  0.2046  0.0288  0.0083  0.1037  0.0000  0.0000  0.0000  0.0000  0.0000 </r>
        <r>  0.2046  0.0288  0.0083  0.1037  0.0000  0.0000  0.0000  0.0000  0.0000 </r>
       </set>
       <set comment="band 3">
        <r>  0.0176  0.1734  0.0318  0.0767  0.0000  0.0000  0.0000  0.0000  0.0000 </r>
        <r>  0.0176  0.1734  0.0318  0.0767  0.0000  0.0000  0.0000  0.0000  0.0000 </r>
       </set>
       <set comment="band 4">
        <r>  0.0026  0.0507  0.2522  0.0078  0.0000  0.0000  0.0000  0.0000  0.0000 </r>
        <r>  0.0026  0.0507  0.2522  0.0078  0.0000  0.0000  0.0000  0.0000  0.0000 </r>
       </set>
       <set comment="band 5">
        <r>  0.0764  0.0782  0.0502  0.0227  0.0000  0.0000  0.0000  0.0000  0.0000 </r>
        <r>  0.0764  0.0782  0.0502  0.0227  0.0000  0.0000  0.0000  0.0000  0.0000 </r>
       </set>
       <set comment="band 6">
        <r>  0.0650  0.0481  0.0176  0.0933  0.0000  0.0000  0.0000  0.0000  0.0000 </r>
        <r>  0.0650  0.0481  0.0176  0.0933  0.0000  0.0000  0.0000  0.0000  0.0000 </r>
       </set>
       <set comment="band 7">
        <r>  0.0691  0.1050  0.1521  0.0150  0.0000  0.0000  0.0000  0.0000  0.0000 </r>
        <r>  0.0691  0.1050  0.1521  0.0150  0.0000  0.0000  0.0000  0.0000  0.0000 </r>
       </set>
       <set comment="band 8">
        <r>  0.0319  0.1165  0.1583  0.0872  0.0000  0.0000  0.0000  0.0000  0.0000 </r>
        <r>  0.0319  0.1165  0.1583  0.0872  0.0000  0.0000  0.0000  0.0000  0.0000 </r>
       </set>
      </set>
      <set comment="kpoint 113">
       <set comment="band 1">
        <r>  0.2570  0.0341  0.0065  0.0439  0.0000  0.0000  0.0000  0.0000  0.0000 </r>
        <r>  0.2570  0.0341  0.0065  0.0439  0.0000  0.0000  0.0000  0.0000  0.0000 </r>
       </set>
       <set comment="band 2">
        <r>  0.1931  0.0214  0.0028  0.1168  0.0000  0.0000  0.0000  0.0000  0.0000 </r>
        <r>  0.1931  0.0214  0.0028  0.1168  0.0000  0.0000  0.0000  0.0000  0.0000 </r>
       </set>
       <set comment="band 3">
        <r>  0.0147  0.1871  0.0060  0.0803  0.0000  0.0000  0.0000  0.0000  0.0000 </r>
        <r>  0.0147  0.1871  0.0060  0.0803  0.0000  0.0000  0.0000  0.0000  0.0000 </r>
       </set>
       <set comment="band 4">
        <r>  0.0059  0.0165  0.2838  0.0106  0.0000  0.0000  0.0000  0.0000  0.0000 </r>
        <r>  0.0059  0.0165  0.2838  0.0106  0.0000  0.0000  0.0000  0.0000  0.0000 </r>
       </set>
       <set comment="band 5">
        <r>  0.0707  0.0550  0.0540  0.0411  0.0000  0.0000  0.0000  0.0000  0.0000 </r>
        <r>  0.0707  0.0550  0.0540  0.0411  0.0000  0.0000  0.0000  0.0000  0.0000 </r>
       </set>
       <set comment="band 6">
        <r>  0.0295  0.0838  0.0587  0.0800  0.0000  0.0000  0.0000  0.0000  0.0000 </r>
        <r>  0.0295  0.0838  0.0587  0.0800  0.0000  0.0000  0.0000  0.0000  0.0000 </r>
       </set>
       <set comment="band 7">
        <r>  0.0830  0.0787  0.1599  0.0263  0.0000  0.0000  0.0000  0.0000  0.0000 </r>
        <r>  0.0830  0.0787  0.1599  0.0263  0.0000  0.0000  0.0000  0.0000  0.0000 </r>
       </set>
       <set comment="band 8">
        <r>  0.0678  0.1170  0.0671  0.1068  0.0000  0.0000  0.0000  0.0000  0.0000 </r>
        <r>  0.0678  0.1170  0.0671  0.1068  0.0000  0.0000  0.0000  0.0000  0.0000 </r>
       </set>
      </set>
      <set comment="kpoint 114">
       <set comment="band 1">
        <r>  0.2542  0.0433  0.0063  0.0313  0.0000  0.0000  0.0000  0.0000  0.0000 </r>
        <r>  0.2542  0.0433  0.0063  0.0313  0.0000  0.0000  0.0000  0.0000  0.0000 </r>
       </set>
       <set comment="band 2">
        <r>  0.1936  0.0638  0.0022  0.0798  0.0000  0.0000  0.0000  0.0000  0.0000 </r>
        <r>  0.1936  0.0638  0.0022  0.0798  0.0000  0.0000  0.0000  0.0000  0.0000 </r>
       </set>
       <set comment="band 3">
        <r>  0.0136  0.1377  0.0027  0.1308  0.0000  0.0000  0.0000  0.0000  0.0000 </r>
        <r>  0.0136  0.1377  0.0027  0.1308  0.0000  0.0000  0.0000  0.0000  0.0000 </r>
       </set>
       <set comment="band 4">
        <r>  0.0075  0.0075  0.2920  0.0151  0.0000  0.0000  0.0000  0.0000  0.0000 </r>
        <r>  0.0075  0.0075  0.2920  0.0151  0.0000  0.0000  0.0000  0.0000  0.0000 </r>
       </set>
       <set comment="band 5">
        <r>  0.0613  0.0486  0.0538  0.0616  0.0000  0.0000  0.0000  0.0000  0.0000 </r>
        <r>  0.0613  0.0486  0.0538  0.0616  0.0000  0.0000  0.0000  0.0000  0.0000 </r>
       </set>
       <set comment="band 6">
        <r>  0.0260  0.0057  0.2576  0.0102  0.0000  0.0000  0.0000  0.0000  0.0000 </r>
        <r>  0.0260  0.0057  0.2576  0.0102  0.0000  0.0000  0.0000  0.0000  0.0000 </r>
       </set>
       <set comment="band 7">
        <r>  0.1088  0.1320  0.0004  0.0868  0.0000  0.0000  0.0000  0.0000  0.0000 </r>
        <r>  0.1088  0.1320  0.0004  0.0868  0.0000  0.0000  0.0000  0.0000  0.0000 </r>
       </set>
       <set comment="band 8">
        <r>  0.0618  0.1416  0.0050  0.1397  0.0000  0.0000  0.0000  0.0000  0.0000 </r>
        <r>  0.0618  0.1416  0.0050  0.1397  0.0000  0.0000  0.0000  0.0000  0.0000 </r>
       </set>
      </set>
      <set comment="kpoint 115">
       <set comment="band 1">
        <r>  0.2302  0.0237  0.0040  0.0717  0.0000  0.0000  0.0000  0.0000  0.0000 </r>
        <r>  0.2302  0.0237  0.0040  0.0717  0.0000  0.0000  0.0000  0.0000  0.0000 </r>
       </set>
       <set comment="band 2">
        <r>  0.2180  0.0418  0.0077  0.0747  0.0000  0.0000  0.0000  0.0000  0.0000 </r>
        <r>  0.2180  0.0418  0.0077  0.0747  0.0000  0.0000  0.0000  0.0000  0.0000 </r>
       </set>
       <set comment="band 3">
        <r>  0.0105  0.0678  0.1411  0.0909  0.0000  0.0000  0.0000  0.0000  0.0000 </r>
        <r>  0.0105  0.0678  0.1411  0.0909  0.0000  0.0000  0.0000  0.0000  0.0000 </r>
       </set>
       <set comment="band 4">
        <r>  0.0024  0.1448  0.1402  0.0223  0.0000  0.0000  0.0000  0.0000  0.0000 </r>
        <r>  0.0024  0.1448  0.1402  0.0223  0.0000  0.0000  0.0000  0.0000  0.0000 </r>
       </set>
       <set comment="band 5">
        <r>  0.0867  0.0836  0.0313  0.0187  0.0000  0.0000  0.0000  0.0000  0.0000 </r>
        <r>  0.0867  0.0836  0.0313  0.0187  0.0000  0.0000  0.0000  0.0000  0.0000 </r>
       </set>
       <set comment="band 6">
        <r>  0.0888  0.0034  0.0302  0.0823  0.0000  0.0000  0.0000  0.0000  0.0000 </r>
        <r>  0.0888  0.0034  0.0302  0.0823  0.0000  0.0000  0.0000  0.0000  0.0000 </r>
       </set>
       <set comment="band 7">
        <r>  0.0382  0.1469  0.1553  0.0282  0.0000  0.0000  0.0000  0.0000  0.0000 </r>
        <r>  0.0382  0.1469  0.1553  0.0282  0.0000  0.0000  0.0000  0.0000  0.0000 </r>
       </set>
       <set comment="band 8">
        <r>  0.0229  0.0954  0.1817  0.0970  0.0000  0.0000  0.0000  0.0000  0.0000 </r>
        <r>  0.0229  0.0954  0.1817  0.0970  0.0000  0.0000  0.0000  0.0000  0.0000 </r>
       </set>
      </set>
      <set comment="kpoint 116">
       <set comment="band 1">
        <r>  0.2436  0.0342  0.0080  0.0571  0.0000  0.0000  0.0000  0.0000  0.0000 </r>
        <r>  0.2436  0.0342  0.0080  0.0571  0.0000  0.0000  0.0000  0.0000  0.0000 </r>
       </set>
       <set comment="band 2">
        <r>  0.2171  0.0450  0.0024  0.0724  0.0000  0.0000  0.0000  0.0000  0.0000 </r>
        <r>  0.2171  0.0450  0.0024  0.0724  0.0000  0.0000  0.0000  0.0000  0.0000 </r>
       </set>
       <set comment="band 3">
        <r>  0.0022  0.1759  0.0002  0.1124  0.0000  0.0000  0.0000  0.0000  0.0000 </r>
        <r>  0.0022  0.1759  0.0002  0.1124  0.0000  0.0000  0.0000  0.0000  0.0000 </r>
       </set>
       <set comment="band 4">
        <r>  0.0065  0.0070  0.2848  0.0141  0.0000  0.0000  0.0000  0.0000  0.0000 </r>
        <r>  0.0065  0.0070  0.2848  0.0141  0.0000  0.0000  0.0000  0.0000  0.0000 </r>
       </set>
       <set comment="band 5">
        <r>  0.0813  0.0308  0.0549  0.0478  0.0000  0.0000  0.0000  0.0000  0.0000 </r>
        <r>  0.0813  0.0308  0.0549  0.0478  0.0000  0.0000  0.0000  0.0000  0.0000 </r>
       </set>
       <set comment="band 6">
        <r>  0.0692  0.0835  0.0100  0.0733  0.0000  0.0000  0.0000  0.0000  0.0000 </r>
        <r>  0.0692  0.0835  0.0100  0.0733  0.0000  0.0000  0.0000  0.0000  0.0000 </r>
       </set>
       <set comment="band 7">
        <r>  0.0360  0.0082  0.2990  0.0162  0.0000  0.0000  0.0000  0.0000  0.0000 </r>
        <r>  0.0360  0.0082  0.2990  0.0162  0.0000  0.0000  0.0000  0.0000  0.0000 </r>
       </set>
       <set comment="band 8">
        <r>  0.0570  0.1961  0.0000  0.1121  0.0000  0.0000  0.0000  0.0000  0.0000 </r>
        <r>  0.0570  0.1961  0.0000  0.1121  0.0000  0.0000  0.0000  0.0000  0.0000 </r>
       </set>
      </set>
      <set comment="kpoint 117">
       <set comment="band 1">
        <r>  0.2452  0.0105  0.0082  0.0613  0.0000  0.0000  0.0000  0.0000  0.0000 </r>
        <r>  0.2452  0.0105  0.0082  0.0613  0.0000  0.0000  0.0000  0.0000  0.0000 </r>
       </set>
       <set comment="band 2">
        <r>  0.1948  0.0313  0.0430  0.0782  0.0000  0.0000  0.0000  0.0000  0.0000 </r>
        <r>  0.1948  0.0313  0.0430  0.0782  0.0000  0.0000  0.0000  0.0000  0.0000 </r>
       </set>
       <set comment="band 3">
        <r>  0.0208  0.0549  0.1226  0.0993  0.0000  0.0000  0.0000  0.0000  0.0000 </r>
        <r>  0.0208  0.0549  0.1226  0.0993  0.0000  0.0000  0.0000  0.0000  0.0000 </r>
       </set>
       <set comment="band 4">
        <r>  0.0058  0.1863  0.1005  0.0210  0.0000  0.0000  0.0000  0.0000  0.0000 </r>
        <r>  0.0058  0.1863  0.1005  0.0210  0.0000  0.0000  0.0000  0.0000  0.0000 </r>
       </set>
       <set comment="band 5">
        <r>  0.0549  0.1329  0.0556  0.0228  0.0000  0.0000  0.0000  0.0000  0.0000 </r>
        <r>  0.0549  0.1329  0.0556  0.0228  0.0000  0.0000  0.0000  0.0000  0.0000 </r>
       </set>
       <set comment="band 6">
        <r>  0.0007  0.0387  0.0943  0.0655  0.0000  0.0000  0.0000  0.0000  0.0000 </r>
        <r>  0.0007  0.0387  0.0943  0.0655  0.0000  0.0000  0.0000  0.0000  0.0000 </r>
       </set>
       <set comment="band 7">
        <r>  0.1576  0.0658  0.0568  0.0577  0.0000  0.0000  0.0000  0.0000  0.0000 </r>
        <r>  0.1576  0.0658  0.0568  0.0577  0.0000  0.0000  0.0000  0.0000  0.0000 </r>
       </set>
       <set comment="band 8">
        <r>  0.0347  0.0944  0.1753  0.0898  0.0000  0.0000  0.0000  0.0000  0.0000 </r>
        <r>  0.0347  0.0944  0.1753  0.0898  0.0000  0.0000  0.0000  0.0000  0.0000 </r>
       </set>
      </set>
      <set comment="kpoint 118">
       <set comment="band 1">
        <r>  0.2529  0.0201  0.0113  0.0532  0.0000  0.0000  0.0000  0.0000  0.0000 </r>
        <r>  0.2529  0.0201  0.0113  0.0532  0.0000  0.0000  0.0000  0.0000  0.0000 </r>
       </set>
       <set comment="band 2">
        <r>  0.1918  0.0257  0.0140  0.1055  0.0000  0.0000  0.0000  0.0000  0.0000 </r>
        <r>  0.1918  0.0257  0.0140  0.1055  0.0000  0.0000  0.0000  0.0000  0.0000 </r>
       </set>
       <set comment="band 3">
        <r>  0.0258  0.1050  0.0878  0.0769  0.0000  0.0000  0.0000  0.0000  0.0000 </r>
        <r>  0.0258  0.1050  0.0878  0.0769  0.0000  0.0000  0.0000  0.0000  0.0000 </r>
       </set>
       <set comment="band 4">
        <r>  0.0032  0.1214  0.1633  0.0194  0.0000  0.0000  0.0000  0.0000  0.0000 </r>
        <r>  0.0032  0.1214  0.1633  0.0194  0.0000  0.0000  0.0000  0.0000  0.0000 </r>
       </set>
       <set comment="band 5">
        <r>  0.0230  0.0984  0.0850  0.0217  0.0000  0.0000  0.0000  0.0000  0.0000 </r>
        <r>  0.0230  0.0984  0.0850  0.0217  0.0000  0.0000  0.0000  0.0000  0.0000 </r>
       </set>
       <set comment="band 6">
        <r>  0.0574  0.0625  0.1307  0.0198  0.0000  0.0000  0.0000  0.0000  0.0000 </r>
        <r>  0.0574  0.0625  0.1307  0.0198  0.0000  0.0000  0.0000  0.0000  0.0000 </r>
       </set>
       <set comment="band 7">
        <r>  0.1128  0.0883  0.0100  0.1131  0.0000  0.0000  0.0000  0.0000  0.0000 </r>
        <r>  0.1128  0.0883  0.0100  0.1131  0.0000  0.0000  0.0000  0.0000  0.0000 </r>
       </set>
       <set comment="band 8">
        <r>  0.0602  0.0651  0.1143  0.1125  0.0000  0.0000  0.0000  0.0000  0.0000 </r>
        <r>  0.0602  0.0651  0.1143  0.1125  0.0000  0.0000  0.0000  0.0000  0.0000 </r>
       </set>
      </set>
      <set comment="kpoint 119">
       <set comment="band 1">
        <r>  0.2402  0.0226  0.0106  0.0644  0.0000  0.0000  0.0000  0.0000  0.0000 </r>
        <r>  0.2402  0.0226  0.0106  0.0644  0.0000  0.0000  0.0000  0.0000  0.0000 </r>
       </set>
       <set comment="band 2">
        <r>  0.2268  0.0360  0.0217  0.0630  0.0000  0.0000  0.0000  0.0000  0.0000 </r>
        <r>  0.2268  0.0360  0.0217  0.0630  0.0000  0.0000  0.0000  0.0000  0.0000 </r>
       </set>
       <set comment="band 3">
        <r>  0.0083  0.0493  0.1230  0.1132  0.0000  0.0000  0.0000  0.0000  0.0000 </r>
        <r>  0.0083  0.0493  0.1230  0.1132  0.0000  0.0000  0.0000  0.0000  0.0000 </r>
       </set>
       <set comment="band 4">
        <r>  0.0000  0.1623  0.1160  0.0187  0.0000  0.0000  0.0000  0.0000  0.0000 </r>
        <r>  0.0000  0.1623  0.1160  0.0187  0.0000  0.0000  0.0000  0.0000  0.0000 </r>
       </set>
       <set comment="band 5">
        <r>  0.0595  0.1183  0.0565  0.0116  0.0000  0.0000  0.0000  0.0000  0.0000 </r>
        <r>  0.0595  0.1183  0.0565  0.0116  0.0000  0.0000  0.0000  0.0000  0.0000 </r>
       </set>
       <set comment="band 6">
        <r>  0.0482  0.0068  0.0621  0.1043  0.0000  0.0000  0.0000  0.0000  0.0000 </r>
        <r>  0.0482  0.0068  0.0621  0.1043  0.0000  0.0000  0.0000  0.0000  0.0000 </r>
       </set>
       <set comment="band 7">
        <r>  0.0874  0.1213  0.1026  0.0255  0.0000  0.0000  0.0000  0.0000  0.0000 </r>
        <r>  0.0874  0.1213  0.1026  0.0255  0.0000  0.0000  0.0000  0.0000  0.0000 </r>
       </set>
       <set comment="band 8">
        <r>  0.0530  0.0576  0.1344  0.1105  0.0000  0.0000  0.0000  0.0000  0.0000 </r>
        <r>  0.0530  0.0576  0.1344  0.1105  0.0000  0.0000  0.0000  0.0000  0.0000 </r>
       </set>
      </set>
      <set comment="kpoint 120">
       <set comment="band 1">
        <r>  0.2495  0.0374  0.0167  0.0414  0.0000  0.0000  0.0000  0.0000  0.0000 </r>
        <r>  0.2495  0.0374  0.0167  0.0414  0.0000  0.0000  0.0000  0.0000  0.0000 </r>
       </set>
       <set comment="band 2">
        <r>  0.2248  0.0468  0.0110  0.0621  0.0000  0.0000  0.0000  0.0000  0.0000 </r>
        <r>  0.2248  0.0468  0.0110  0.0621  0.0000  0.0000  0.0000  0.0000  0.0000 </r>
       </set>
       <set comment="band 3">
        <r>  0.0009  0.1573  0.0024  0.1239  0.0000  0.0000  0.0000  0.0000  0.0000 </r>
        <r>  0.0009  0.1573  0.0024  0.1239  0.0000  0.0000  0.0000  0.0000  0.0000 </r>
       </set>
       <set comment="band 4">
        <r>  0.0032  0.0173  0.2445  0.0339  0.0000  0.0000  0.0000  0.0000  0.0000 </r>
        <r>  0.0032  0.0173  0.2445  0.0339  0.0000  0.0000  0.0000  0.0000  0.0000 </r>
       </set>
       <set comment="band 5">
        <r>  0.0383  0.0501  0.0888  0.0534  0.0000  0.0000  0.0000  0.0000  0.0000 </r>
        <r>  0.0383  0.0501  0.0888  0.0534  0.0000  0.0000  0.0000  0.0000  0.0000 </r>
       </set>
       <set comment="band 6">
        <r>  0.0004  0.0485  0.1561  0.0293  0.0000  0.0000  0.0000  0.0000  0.0000 </r>
        <r>  0.0004  0.0485  0.1561  0.0293  0.0000  0.0000  0.0000  0.0000  0.0000 </r>
       </set>
       <set comment="band 7">
        <r>  0.1112  0.0756  0.0735  0.0925  0.0000  0.0000  0.0000  0.0000  0.0000 </r>
        <r>  0.1112  0.0756  0.0735  0.0925  0.0000  0.0000  0.0000  0.0000  0.0000 </r>
       </set>
       <set comment="band 8">
        <r>  0.1017  0.1307  0.0042  0.0932  0.0000  0.0000  0.0000  0.0000  0.0000 </r>
        <r>  0.1017  0.1307  0.0042  0.0932  0.0000  0.0000  0.0000  0.0000  0.0000 </r>
       </set>
      </set>
     </set>
    </set>
   </array>
  </projected>
 </calculation>
 <structure name="finalpos" >
  <crystal>
   <varray name="basis" >
    <v>       2.18050236       0.00000000       1.25891346 </v>
    <v>       0.72683412       2.05579703       1.25891346 </v>
    <v>       0.00000000       0.00000000       2.51782692 </v>
   </varray>
   <i name="volume">     11.28658789 </i>
   <varray name="rec_basis" >
    <v>       0.45860991      -0.16214311       0.00000000 </v>
    <v>       0.00000000       0.48642934       0.00000000 </v>
    <v>      -0.22930496      -0.16214311       0.39716789 </v>
   </varray>
  </crystal>
  <varray name="positions" >
   <v>       0.87500000       0.87500000       0.87500000 </v>
   <v>       0.12500000       0.12500000       0.12500000 </v>
  </varray>
 </structure>
</modeling>
